 #written on  1Dec2019 at 16:58:59 
 #---------------------------------------------------- MONTECARLO ----------------------------------------------------#
 #  Temp    Shell   Atom1   Type1   Atom2   Type2   <\sum_{ij} Si.Sj/N>   <\sum_{ij}|Si.Sj|/N>   <|\sum_{ij}Si.Sj|/N> #
 #--------------------------------------------------------------------------------------------------------------------#
   4.0000     1      Ni       1      Ni       1        -0.000221311           0.930023302             0.001102884
   4.0000     2      Ni       1      Ni       1        -0.000123285           0.937826944             0.000692298
   4.0000     3      Ni       1      Ni       1        -0.966219671           0.966219671             0.966219671
   4.0000     4      Ni       1      Ni       1        -0.965857682           0.965857682             0.965857682
   5.6170     1      Ni       1      Ni       1        -0.000309703           0.896943248             0.001546353
   5.6170     2      Ni       1      Ni       1        -0.000183297           0.908739254             0.000973677
   5.6170     3      Ni       1      Ni       1        -0.952214959           0.952214959             0.952214959
   5.6170     4      Ni       1      Ni       1        -0.951552947           0.951552947             0.951552947
   7.2340     1      Ni       1      Ni       1        -0.000375731           0.862607414             0.001961006
   7.2340     2      Ni       1      Ni       1        -0.000226082           0.877737036             0.001237844
   7.2340     3      Ni       1      Ni       1        -0.938256231           0.938256231             0.938256231
   7.2340     4      Ni       1      Ni       1        -0.937285071           0.937285071             0.937285071
   8.8511     1      Ni       1      Ni       1        -0.000470801           0.823038829             0.002376098
   8.8511     2      Ni       1      Ni       1        -0.000248205           0.843390369             0.001510889
   8.8511     3      Ni       1      Ni       1        -0.923946800           0.923946863             0.923946800
   8.8511     4      Ni       1      Ni       1        -0.922745813           0.922745907             0.922745813
  10.4681     1      Ni       1      Ni       1        -0.000546514           0.778636458             0.002792354
  10.4681     2      Ni       1      Ni       1        -0.000303527           0.807844349             0.001780404
  10.4681     3      Ni       1      Ni       1        -0.909428763           0.909429502             0.909428763
  10.4681     4      Ni       1      Ni       1        -0.907976533           0.907977418             0.907976533
  12.0851     1      Ni       1      Ni       1        -0.000580719           0.725283160             0.003175484
  12.0851     2      Ni       1      Ni       1        -0.000346493           0.761289440             0.002014835
  12.0851     3      Ni       1      Ni       1        -0.894448421           0.894453203             0.894448421
  12.0851     4      Ni       1      Ni       1        -0.892791630           0.892797107             0.892791630
  13.7021     1      Ni       1      Ni       1        -0.000680214           0.672092008             0.003567814
  13.7021     2      Ni       1      Ni       1        -0.000396424           0.714469173             0.002270340
  13.7021     3      Ni       1      Ni       1        -0.879437713           0.879458138             0.879437713
  13.7021     4      Ni       1      Ni       1        -0.877568175           0.877592009             0.877568175
  15.3191     1      Ni       1      Ni       1        -0.000714746           0.623697567             0.003914069
  15.3191     2      Ni       1      Ni       1        -0.000444818           0.667661165             0.002515305
  15.3191     3      Ni       1      Ni       1        -0.864207680           0.864270902             0.864207680
  15.3191     4      Ni       1      Ni       1        -0.861968525           0.862043086             0.861968525
  16.9362     1      Ni       1      Ni       1        -0.000821961           0.577343509             0.004277241
  16.9362     2      Ni       1      Ni       1        -0.000496445           0.626904619             0.002765553
  16.9362     3      Ni       1      Ni       1        -0.848679676           0.848844708             0.848679676
  16.9362     4      Ni       1      Ni       1        -0.846132515           0.846327641             0.846132515
  18.5532     1      Ni       1      Ni       1        -0.000866122           0.564048814             0.004673985
  18.5532     2      Ni       1      Ni       1        -0.000514516           0.608454096             0.003004750
  18.5532     3      Ni       1      Ni       1        -0.833343753           0.833708731             0.833343753
  18.5532     4      Ni       1      Ni       1        -0.830584266           0.831007670             0.830584266
  20.1702     1      Ni       1      Ni       1        -0.000933539           0.533045085             0.005050820
  20.1702     2      Ni       1      Ni       1        -0.000584112           0.579852067             0.003277217
  20.1702     3      Ni       1      Ni       1        -0.817156478           0.817877645             0.817156478
  20.1702     4      Ni       1      Ni       1        -0.814097985           0.814917938             0.814097985
  21.7872     1      Ni       1      Ni       1        -0.001034986           0.528137290             0.005506453
  21.7872     2      Ni       1      Ni       1        -0.000596688           0.567231035             0.003510971
  21.7872     3      Ni       1      Ni       1        -0.801458100           0.802720396             0.801458100
  21.7872     4      Ni       1      Ni       1        -0.798193615           0.799641962             0.798193615
  23.4043     1      Ni       1      Ni       1        -0.001109165           0.519712093             0.005893355
  23.4043     2      Ni       1      Ni       1        -0.000642872           0.555082615             0.003807327
  23.4043     3      Ni       1      Ni       1        -0.785442293           0.787554166             0.785442293
  23.4043     4      Ni       1      Ni       1        -0.781717084           0.784103629             0.781717084
  25.0213     1      Ni       1      Ni       1        -0.001172810           0.511842402             0.006320108
  25.0213     2      Ni       1      Ni       1        -0.000698713           0.541601914             0.004053239
  25.0213     3      Ni       1      Ni       1        -0.769298209           0.772568985             0.769298209
  25.0213     4      Ni       1      Ni       1        -0.765508122           0.769163230             0.765508122
  26.6383     1      Ni       1      Ni       1        -0.001319890           0.513048175             0.006795834
  26.6383     2      Ni       1      Ni       1        -0.000738081           0.535904709             0.004343124
  26.6383     3      Ni       1      Ni       1        -0.752590493           0.757484455             0.752590493
  26.6383     4      Ni       1      Ni       1        -0.748197727           0.753637709             0.748197727
  28.2553     1      Ni       1      Ni       1        -0.001312805           0.505485216             0.007221159
  28.2553     2      Ni       1      Ni       1        -0.000815549           0.526735055             0.004618780
  28.2553     3      Ni       1      Ni       1        -0.735726511           0.742730355             0.735726511
  28.2553     4      Ni       1      Ni       1        -0.731533637           0.739243206             0.731533637
  29.8723     1      Ni       1      Ni       1        -0.001458203           0.506284281             0.007724952
  29.8723     2      Ni       1      Ni       1        -0.000851702           0.522245870             0.004909674
  29.8723     3      Ni       1      Ni       1        -0.718581554           0.728195406             0.718581554
  29.8723     4      Ni       1      Ni       1        -0.713961109           0.724560102             0.713961109
  31.4894     1      Ni       1      Ni       1        -0.001523615           0.502811126             0.008161897
  31.4894     2      Ni       1      Ni       1        -0.000880402           0.517485713             0.005212998
  31.4894     3      Ni       1      Ni       1        -0.700982695           0.713923349             0.700982695
  31.4894     4      Ni       1      Ni       1        -0.695921302           0.710089040             0.695921302
  33.1064     1      Ni       1      Ni       1        -0.001624186           0.503040593             0.008652770
  33.1064     2      Ni       1      Ni       1        -0.000976636           0.514313537             0.005536369
  33.1064     3      Ni       1      Ni       1        -0.683242384           0.700138684             0.683242384
  33.1064     4      Ni       1      Ni       1        -0.678200855           0.696530521             0.678200855
  34.7234     1      Ni       1      Ni       1        -0.001745630           0.501004398             0.009156646
  34.7234     2      Ni       1      Ni       1        -0.001048159           0.512705128             0.005840641
  34.7234     3      Ni       1      Ni       1        -0.665576079           0.687075693             0.665576079
  34.7234     4      Ni       1      Ni       1        -0.660091230           0.683369632             0.660091230
  36.3404     1      Ni       1      Ni       1        -0.001857978           0.501528920             0.009652266
  36.3404     2      Ni       1      Ni       1        -0.001102573           0.509759143             0.006161065
  36.3404     3      Ni       1      Ni       1        -0.646669804           0.673889571             0.646669804
  36.3404     4      Ni       1      Ni       1        -0.640926497           0.670217473             0.640926497
  37.9574     1      Ni       1      Ni       1        -0.001989488           0.500812487             0.010167977
  37.9574     2      Ni       1      Ni       1        -0.001216862           0.507927905             0.006483375
  37.9574     3      Ni       1      Ni       1        -0.627847065           0.661429216             0.627847065
  37.9574     4      Ni       1      Ni       1        -0.621900819           0.657863433             0.621900819
  39.5745     1      Ni       1      Ni       1        -0.002175871           0.501545903             0.010686174
  39.5745     2      Ni       1      Ni       1        -0.001212868           0.507272161             0.006824952
  39.5745     3      Ni       1      Ni       1        -0.608494074           0.649415175             0.608494074
  39.5745     4      Ni       1      Ni       1        -0.602156312           0.645862770             0.602156312
  41.1915     1      Ni       1      Ni       1        -0.002278269           0.500959355             0.011274874
  41.1915     2      Ni       1      Ni       1        -0.001297306           0.505921611             0.007153209
  41.1915     3      Ni       1      Ni       1        -0.588376575           0.637672439             0.588376575
  41.1915     4      Ni       1      Ni       1        -0.581943070           0.634307280             0.581943070
  42.8085     1      Ni       1      Ni       1        -0.002416709           0.499687947             0.011819488
  42.8085     2      Ni       1      Ni       1        -0.001332031           0.504193740             0.007531173
  42.8085     3      Ni       1      Ni       1        -0.567889956           0.626464261             0.567889956
  42.8085     4      Ni       1      Ni       1        -0.561298487           0.623375161             0.561298487
  44.4255     1      Ni       1      Ni       1        -0.002524966           0.499840542             0.012403274
  44.4255     2      Ni       1      Ni       1        -0.001536144           0.503731183             0.007914499
  44.4255     3      Ni       1      Ni       1        -0.546327739           0.615559569             0.546327739
  44.4255     4      Ni       1      Ni       1        -0.539715581           0.612678561             0.539715581
  46.0426     1      Ni       1      Ni       1        -0.002645609           0.499978198             0.012973508
  46.0426     2      Ni       1      Ni       1        -0.001578262           0.503312497             0.008287805
  46.0426     3      Ni       1      Ni       1        -0.524729769           0.605428494             0.524729769
  46.0426     4      Ni       1      Ni       1        -0.517928114           0.602701024             0.517928114
  47.6596     1      Ni       1      Ni       1        -0.002796398           0.500005881             0.013599061
  47.6596     2      Ni       1      Ni       1        -0.001660251           0.502684403             0.008664756
  47.6596     3      Ni       1      Ni       1        -0.502985144           0.595970159             0.502985144
  47.6596     4      Ni       1      Ni       1        -0.495713500           0.593262688             0.495713500
  49.2766     1      Ni       1      Ni       1        -0.002962883           0.499738944             0.014210299
  49.2766     2      Ni       1      Ni       1        -0.001747071           0.502102238             0.009049100
  49.2766     3      Ni       1      Ni       1        -0.480797538           0.586937347             0.480797538
  49.2766     4      Ni       1      Ni       1        -0.473325930           0.584313302             0.473325930
  50.8936     1      Ni       1      Ni       1        -0.003131424           0.500141489             0.014818354
  50.8936     2      Ni       1      Ni       1        -0.001871160           0.502058284             0.009438273
  50.8936     3      Ni       1      Ni       1        -0.458685694           0.578586157             0.458685694
  50.8936     4      Ni       1      Ni       1        -0.451618883           0.576375850             0.451618883
  52.5106     1      Ni       1      Ni       1        -0.003343650           0.499966062             0.015420838
  52.5106     2      Ni       1      Ni       1        -0.001974209           0.501798051             0.009836213
  52.5106     3      Ni       1      Ni       1        -0.436179880           0.570794006             0.436179880
  52.5106     4      Ni       1      Ni       1        -0.428970612           0.568833431             0.428970612
  54.1277     1      Ni       1      Ni       1        -0.003454621           0.500034511             0.016028157
  54.1277     2      Ni       1      Ni       1        -0.002064115           0.501539476             0.010194635
  54.1277     3      Ni       1      Ni       1        -0.414914153           0.563751545             0.414914153
  54.1277     4      Ni       1      Ni       1        -0.407703733           0.561969061             0.407703733
  55.7447     1      Ni       1      Ni       1        -0.003606592           0.499973078             0.016623730
  55.7447     2      Ni       1      Ni       1        -0.002122385           0.501321368             0.010574517
  55.7447     3      Ni       1      Ni       1        -0.393459312           0.557213141             0.393459312
  55.7447     4      Ni       1      Ni       1        -0.386404532           0.555501986             0.386404532
  57.3617     1      Ni       1      Ni       1        -0.003758558           0.500005714             0.017201602
  57.3617     2      Ni       1      Ni       1        -0.002153339           0.501214873             0.010995209
  57.3617     3      Ni       1      Ni       1        -0.372918470           0.551352182             0.372918470
  57.3617     4      Ni       1      Ni       1        -0.366085758           0.549734649             0.366085758
  58.9787     1      Ni       1      Ni       1        -0.003838299           0.499970777             0.017725941
  58.9787     2      Ni       1      Ni       1        -0.002206725           0.501071454             0.011295628
  58.9787     3      Ni       1      Ni       1        -0.353156060           0.545965850             0.353156060
  58.9787     4      Ni       1      Ni       1        -0.346564554           0.544586057             0.346564554
  60.5957     1      Ni       1      Ni       1        -0.003975872           0.499998689             0.018284794
  60.5957     2      Ni       1      Ni       1        -0.002304859           0.501068646             0.011594311
  60.5957     3      Ni       1      Ni       1        -0.335131990           0.541492720             0.335131990
  60.5957     4      Ni       1      Ni       1        -0.329130004           0.540187169             0.329130004
  62.2128     1      Ni       1      Ni       1        -0.004160822           0.500045518             0.018727366
  62.2128     2      Ni       1      Ni       1        -0.002371934           0.500920786             0.011912132
  62.2128     3      Ni       1      Ni       1        -0.318083944           0.537419674             0.318083944
  62.2128     4      Ni       1      Ni       1        -0.312849761           0.536511348             0.312849761
  63.8298     1      Ni       1      Ni       1        -0.004236872           0.500000228             0.019142622
  63.8298     2      Ni       1      Ni       1        -0.002415309           0.500893962             0.012219093
  63.8298     3      Ni       1      Ni       1        -0.302791485           0.533879408             0.302791485
  63.8298     4      Ni       1      Ni       1        -0.297540296           0.533004470             0.297540296
  65.4468     1      Ni       1      Ni       1        -0.004280857           0.499992451             0.019648766
  65.4468     2      Ni       1      Ni       1        -0.002475317           0.500817682             0.012500883
  65.4468     3      Ni       1      Ni       1        -0.287654337           0.530685088             0.287654337
  65.4468     4      Ni       1      Ni       1        -0.283617698           0.530132439             0.283617883
  67.0638     1      Ni       1      Ni       1        -0.004306641           0.500083373             0.019962037
  67.0638     2      Ni       1      Ni       1        -0.002586676           0.500745635             0.012777644
  67.0638     3      Ni       1      Ni       1        -0.274167010           0.527907095             0.274167010
  67.0638     4      Ni       1      Ni       1        -0.270603482           0.527480197             0.270603520
  68.6809     1      Ni       1      Ni       1        -0.004381462           0.499961583             0.020236984
  68.6809     2      Ni       1      Ni       1        -0.002604976           0.500775006             0.013029470
  68.6809     3      Ni       1      Ni       1        -0.261566447           0.525418008             0.261566447
  68.6809     4      Ni       1      Ni       1        -0.258606398           0.525088504             0.258606890
  70.2979     1      Ni       1      Ni       1        -0.004440889           0.499993830             0.020584494
  70.2979     2      Ni       1      Ni       1        -0.002649822           0.500709582             0.013206948
  70.2979     3      Ni       1      Ni       1        -0.250530439           0.523300478             0.250530439
  70.2979     4      Ni       1      Ni       1        -0.248384997           0.523084241             0.248385288
  71.9149     1      Ni       1      Ni       1        -0.004420088           0.500008768             0.020830394
  71.9149     2      Ni       1      Ni       1        -0.002608885           0.500701625             0.013424786
  71.9149     3      Ni       1      Ni       1        -0.239744303           0.521310221             0.239744412
  71.9149     4      Ni       1      Ni       1        -0.238143149           0.521243007             0.238144113
  73.5319     1      Ni       1      Ni       1        -0.004327282           0.500121528             0.021055387
  73.5319     2      Ni       1      Ni       1        -0.002667231           0.500672380             0.013627640
  73.5319     3      Ni       1      Ni       1        -0.230462417           0.519801043             0.230462417
  73.5319     4      Ni       1      Ni       1        -0.229929565           0.519807718             0.229932281
  75.1489     1      Ni       1      Ni       1        -0.004395253           0.499998113             0.021318186
  75.1489     2      Ni       1      Ni       1        -0.002640342           0.500668502             0.013782513
  75.1489     3      Ni       1      Ni       1        -0.221348058           0.518248362             0.221348058
  75.1489     4      Ni       1      Ni       1        -0.221249526           0.518413701             0.221251164
  76.7660     1      Ni       1      Ni       1        -0.004451673           0.500025800             0.021628704
  76.7660     2      Ni       1      Ni       1        -0.002707990           0.500627687             0.014017204
  76.7660     3      Ni       1      Ni       1        -0.213154302           0.516953550             0.213154316
  76.7660     4      Ni       1      Ni       1        -0.213233524           0.517158891             0.213236212
  78.3830     1      Ni       1      Ni       1        -0.004437722           0.499970519             0.021756606
  78.3830     2      Ni       1      Ni       1        -0.002745848           0.500654146             0.014209228
  78.3830     3      Ni       1      Ni       1        -0.205539635           0.515735300             0.205539635
  78.3830     4      Ni       1      Ni       1        -0.206345590           0.516029467             0.206350182
  80.0000     1      Ni       1      Ni       1        -0.004352765           0.500095668             0.022020265
  80.0000     2      Ni       1      Ni       1        -0.002697647           0.500616042             0.014260832
  80.0000     3      Ni       1      Ni       1        -0.198318140           0.514673773             0.198318140
  80.0000     4      Ni       1      Ni       1        -0.199497950           0.515015527             0.199503393
