 #written on  7Aug2021 at 23:11:10 
 #---------------------------------------------------- MONTECARLO ----------------------------------------------------#
 #  Temp    Shell   Atom1   Type1   Atom2   Type2   <\sum_{ij} Si.Sj/N>   <\sum_{ij}|Si.Sj|/N>   <|\sum_{ij}Si.Sj|/N> #
 #--------------------------------------------------------------------------------------------------------------------#
   4.0000     1      Mn       1      Mn       1        -0.976473149           0.976473149             0.976473149
   4.0000     2      Mn       1      Mn       1         0.840417714           0.840451862             0.840417714
   4.0000     3      Mn       1      Mn       1         0.964448087           0.964448087             0.964448087
   4.0000     4      Mn       1      Mn       1        -0.842545272           0.842577804             0.842545272
   4.0000     5      Mn       1      Mn       1        -0.961646587           0.961646587             0.961646587
   4.0000     6      Mn       1      Mn       1         0.843993033           0.844023850             0.843993033
   4.0000     7      Mn       1      Mn       1        -0.844951327           0.844981503             0.844951327
   5.0476     1      Mn       1      Mn       1        -0.970277047           0.970277047             0.970277047
   5.0476     2      Mn       1      Mn       1         0.801703279           0.802500976             0.801703279
   5.0476     3      Mn       1      Mn       1         0.955129158           0.955129158             0.955129158
   5.0476     4      Mn       1      Mn       1        -0.804318697           0.805097234             0.804318697
   5.0476     5      Mn       1      Mn       1        -0.951605691           0.951605691             0.951605691
   5.0476     6      Mn       1      Mn       1         0.806090762           0.806850350             0.806090762
   5.0476     7      Mn       1      Mn       1        -0.807268033           0.808017945             0.807268033
   6.0952     1      Mn       1      Mn       1        -0.964069021           0.964069021             0.964069021
   6.0952     2      Mn       1      Mn       1         0.778066957           0.780997674             0.778066957
   6.0952     3      Mn       1      Mn       1         0.945810334           0.945810334             0.945810334
   6.0952     4      Mn       1      Mn       1        -0.781190615           0.784066715             0.781190615
   6.0952     5      Mn       1      Mn       1        -0.941570352           0.941570352             0.941570352
   6.0952     6      Mn       1      Mn       1         0.783300870           0.786127483             0.783300870
   6.0952     7      Mn       1      Mn       1        -0.784705120           0.787504910             0.784705120
   7.1429     1      Mn       1      Mn       1        -0.957817407           0.957817408             0.957817407
   7.1429     2      Mn       1      Mn       1         0.769982630           0.772174911             0.769982630
   7.1429     3      Mn       1      Mn       1         0.936426296           0.936426297             0.936426296
   7.1429     4      Mn       1      Mn       1        -0.773627323           0.775759328             0.773627323
   7.1429     5      Mn       1      Mn       1        -0.931461549           0.931461553             0.931461549
   7.1429     6      Mn       1      Mn       1         0.776084698           0.778158852             0.776084698
   7.1429     7      Mn       1      Mn       1        -0.777723462           0.779768738             0.777723462
   8.1905     1      Mn       1      Mn       1        -0.951569070           0.951569071             0.951569070
   8.1905     2      Mn       1      Mn       1         0.741766076           0.747442751             0.741766076
   8.1905     3      Mn       1      Mn       1         0.927072096           0.927072108             0.927072096
   8.1905     4      Mn       1      Mn       1        -0.745890225           0.751437830             0.745890225
   8.1905     5      Mn       1      Mn       1        -0.921394621           0.921394655             0.921394621
   8.1905     6      Mn       1      Mn       1         0.748663362           0.754092723             0.748663362
   8.1905     7      Mn       1      Mn       1        -0.750515838           0.755883327             0.750515838
   9.2381     1      Mn       1      Mn       1        -0.945279178           0.945279179             0.945279178
   9.2381     2      Mn       1      Mn       1        -0.156071876           0.750790786             0.743571735
   9.2381     3      Mn       1      Mn       1         0.917658596           0.917658667             0.917658596
   9.2381     4      Mn       1      Mn       1         0.151370089           0.749854209             0.742670650
   9.2381     5      Mn       1      Mn       1        -0.911256990           0.911257219             0.911256990
   9.2381     6      Mn       1      Mn       1        -0.148196145           0.749202204             0.742040401
   9.2381     7      Mn       1      Mn       1         0.146085229           0.748786321             0.741637053
  10.2857     1      Mn       1      Mn       1        -0.938964232           0.938964235             0.938964232
  10.2857     2      Mn       1      Mn       1        -0.742736211           0.749961237             0.742811337
  10.2857     3      Mn       1      Mn       1         0.908226643           0.908226992             0.908226643
  10.2857     4      Mn       1      Mn       1         0.737472704           0.744901306             0.737554113
  10.2857     5      Mn       1      Mn       1        -0.901104982           0.901105991             0.901104982
  10.2857     6      Mn       1      Mn       1        -0.733914900           0.741544376             0.734000317
  10.2857     7      Mn       1      Mn       1         0.731558085           0.739296060             0.731646452
  11.3333     1      Mn       1      Mn       1        -0.932644683           0.932644701             0.932644683
  11.3333     2      Mn       1      Mn       1        -0.270528634           0.708774289             0.694114632
  11.3333     3      Mn       1      Mn       1         0.898801159           0.898802473             0.898801159
  11.3333     4      Mn       1      Mn       1         0.264897561           0.706737287             0.691973032
  11.3333     5      Mn       1      Mn       1        -0.890972132           0.890975565             0.890972132
  11.3333     6      Mn       1      Mn       1        -0.261114447           0.705379384             0.690511333
  11.3333     7      Mn       1      Mn       1         0.258589502           0.704480106             0.689552533
  12.3810     1      Mn       1      Mn       1        -0.926292296           0.926292367             0.926292296
  12.3810     2      Mn       1      Mn       1        -0.377101505           0.699424207             0.680761620
  12.3810     3      Mn       1      Mn       1         0.889342024           0.889346004             0.889342024
  12.3810     4      Mn       1      Mn       1         0.370966020           0.696305344             0.677492546
  12.3810     5      Mn       1      Mn       1        -0.880797434           0.880807060             0.880797434
  12.3810     6      Mn       1      Mn       1        -0.366862453           0.694248904             0.675275081
  12.3810     7      Mn       1      Mn       1         0.364118955           0.692875707             0.673813665
  13.4286     1      Mn       1      Mn       1        -0.919912590           0.919912830             0.919912590
  13.4286     2      Mn       1      Mn       1        -0.392392095           0.686382265             0.668092946
  13.4286     3      Mn       1      Mn       1         0.879860682           0.879870898             0.879860682
  13.4286     4      Mn       1      Mn       1         0.385777301           0.682849194             0.664289803
  13.4286     5      Mn       1      Mn       1        -0.870613200           0.870636370             0.870613200
  13.4286     6      Mn       1      Mn       1        -0.381359918           0.680564044             0.661730466
  13.4286     7      Mn       1      Mn       1         0.378402845           0.679019916             0.660033077
  14.4762     1      Mn       1      Mn       1        -0.913539305           0.913539997             0.913539305
  14.4762     2      Mn       1      Mn       1        -0.032098674           0.658647249             0.629104751
  14.4762     3      Mn       1      Mn       1         0.870419839           0.870442777             0.870419839
  14.4762     4      Mn       1      Mn       1         0.025105277           0.658346178             0.628916516
  14.4762     5      Mn       1      Mn       1        -0.860485928           0.860534790             0.860485928
  14.4762     6      Mn       1      Mn       1        -0.020478144           0.658113582             0.628748882
  14.4762     7      Mn       1      Mn       1         0.017356382           0.657997602             0.628666753
  15.5238     1      Mn       1      Mn       1        -0.907078736           0.907080504             0.907078736
  15.5238     2      Mn       1      Mn       1        -0.518482224           0.668149371             0.639487638
  15.5238     3      Mn       1      Mn       1         0.860822785           0.860869642             0.860822785
  15.5238     4      Mn       1      Mn       1         0.510864477           0.662722648             0.633511485
  15.5238     5      Mn       1      Mn       1        -0.850159445           0.850254385             0.850159445
  15.5238     6      Mn       1      Mn       1        -0.505802131           0.659277665             0.629516565
  15.5238     7      Mn       1      Mn       1         0.502401564           0.656913838             0.626849727
  16.5714     1      Mn       1      Mn       1        -0.900663353           0.900667354             0.900663353
  16.5714     2      Mn       1      Mn       1         0.112951581           0.619076822             0.571179582
  16.5714     3      Mn       1      Mn       1         0.851349757           0.851436627             0.851349757
  16.5714     4      Mn       1      Mn       1        -0.120757236           0.620352749             0.572904999
  16.5714     5      Mn       1      Mn       1        -0.840014162           0.840182478             0.840014162
  16.5714     6      Mn       1      Mn       1         0.125855271           0.621104149             0.573992150
  16.5714     7      Mn       1      Mn       1        -0.129330536           0.621688134             0.574767128
  17.6190     1      Mn       1      Mn       1        -0.894175826           0.894184153             0.894175826
  17.6190     2      Mn       1      Mn       1         0.049371440           0.609229533             0.551195627
  17.6190     3      Mn       1      Mn       1         0.841760622           0.841912046             0.841760622
  17.6190     4      Mn       1      Mn       1        -0.057636554           0.609831632             0.552144142
  17.6190     5      Mn       1      Mn       1        -0.829724534           0.830007174             0.829724534
  17.6190     6      Mn       1      Mn       1         0.063011916           0.610171090             0.552722330
  17.6190     7      Mn       1      Mn       1        -0.066684755           0.610468356             0.553155097
  18.6667     1      Mn       1      Mn       1        -0.887639144           0.887655121             0.887639144
  18.6667     2      Mn       1      Mn       1        -0.379810463           0.623455701             0.571412458
  18.6667     3      Mn       1      Mn       1         0.832093478           0.832342513             0.832093478
  18.6667     4      Mn       1      Mn       1         0.370885380           0.618684699             0.565849625
  18.6667     5      Mn       1      Mn       1        -0.819339285           0.819787979             0.819339285
  18.6667     6      Mn       1      Mn       1        -0.365049924           0.615758978             0.562169051
  18.6667     7      Mn       1      Mn       1         0.361087374           0.613720118             0.559701413
  19.7143     1      Mn       1      Mn       1        -0.881109024           0.881137515             0.881109024
  19.7143     2      Mn       1      Mn       1        -0.158360340           0.598704323             0.529320786
  19.7143     3      Mn       1      Mn       1         0.822472020           0.822860813             0.822472020
  19.7143     4      Mn       1      Mn       1         0.149099260           0.596607684             0.527036371
  19.7143     5      Mn       1      Mn       1        -0.809029413           0.809708812             0.809029413
  19.7143     6      Mn       1      Mn       1        -0.143100684           0.595314735             0.525498062
  19.7143     7      Mn       1      Mn       1         0.138995952           0.594453508             0.524498203
  20.7619     1      Mn       1      Mn       1        -0.874529505           0.874577770             0.874529505
  20.7619     2      Mn       1      Mn       1        -0.048068393           0.575689832             0.485950432
  20.7619     3      Mn       1      Mn       1         0.812777149           0.813360713             0.812777149
  20.7619     4      Mn       1      Mn       1         0.038478901           0.575033172             0.485549194
  20.7619     5      Mn       1      Mn       1        -0.798636449           0.799628652             0.798636449
  20.7619     6      Mn       1      Mn       1        -0.032324018           0.574613589             0.485232797
  20.7619     7      Mn       1      Mn       1         0.028079537           0.574377451             0.485071777
  21.8095     1      Mn       1      Mn       1        -0.867915303           0.867993380             0.867915303
  21.8095     2      Mn       1      Mn       1        -0.078175471           0.567819319             0.466552455
  21.8095     3      Mn       1      Mn       1         0.803046632           0.803890688             0.803046632
  21.8095     4      Mn       1      Mn       1         0.068122150           0.566710655             0.465539756
  21.8095     5      Mn       1      Mn       1        -0.788207118           0.789605687             0.788207118
  21.8095     6      Mn       1      Mn       1        -0.061699108           0.566049072             0.464834517
  21.8095     7      Mn       1      Mn       1         0.057257837           0.565629414             0.464410512
  22.8571     1      Mn       1      Mn       1        -0.861263891           0.861384854             0.861263891
  22.8571     2      Mn       1      Mn       1        -0.036224655           0.558761329             0.447017960
  22.8571     3      Mn       1      Mn       1         0.793280518           0.794463596             0.793280518
  22.8571     4      Mn       1      Mn       1         0.025743385           0.558240960             0.446846886
  22.8571     5      Mn       1      Mn       1        -0.777749206           0.779666402             0.777749206
  22.8571     6      Mn       1      Mn       1        -0.019096279           0.557932683             0.446685824
  22.8571     7      Mn       1      Mn       1         0.014474121           0.557779797             0.446643067
  23.9048     1      Mn       1      Mn       1        -0.854582177           0.854763273             0.854582177
  23.9048     2      Mn       1      Mn       1        -0.041632536           0.555102161             0.438564805
  23.9048     3      Mn       1      Mn       1         0.783483602           0.785096457             0.783483602
  23.9048     4      Mn       1      Mn       1         0.030654880           0.554491677             0.438068001
  23.9048     5      Mn       1      Mn       1        -0.767256316           0.769816355             0.767256316
  23.9048     6      Mn       1      Mn       1        -0.023714644           0.554148629             0.437696933
  23.9048     7      Mn       1      Mn       1         0.018872273           0.553958366             0.437503605
  24.9524     1      Mn       1      Mn       1        -0.847828016           0.848091108             0.847828016
  24.9524     2      Mn       1      Mn       1        -0.174501952           0.559718061             0.440690989
  24.9524     3      Mn       1      Mn       1         0.773576861           0.775729867             0.773576861
  24.9524     4      Mn       1      Mn       1         0.162921876           0.556840670             0.437106810
  24.9524     5      Mn       1      Mn       1        -0.756641007           0.759993491             0.756641007
  24.9524     6      Mn       1      Mn       1        -0.155602229           0.555200129             0.434760888
  24.9524     7      Mn       1      Mn       1         0.150508437           0.554050784             0.433206241
  26.0000     1      Mn       1      Mn       1        -0.841045801           0.841417541             0.841045801
  26.0000     2      Mn       1      Mn       1        -0.118166986           0.545773261             0.404493412
  26.0000     3      Mn       1      Mn       1         0.763631496           0.766443990             0.763631496
  26.0000     4      Mn       1      Mn       1         0.106201580           0.543780766             0.402154824
  26.0000     5      Mn       1      Mn       1        -0.745991344           0.750294246             0.745991344
  26.0000     6      Mn       1      Mn       1        -0.098695424           0.542674655             0.400626337
  26.0000     7      Mn       1      Mn       1         0.093438969           0.541918600             0.399643881
  27.0476     1      Mn       1      Mn       1        -0.834224687           0.834737096             0.834224687
  27.0476     2      Mn       1      Mn       1        -0.118418844           0.539811497             0.385315472
  27.0476     3      Mn       1      Mn       1         0.753656969           0.757262875             0.753656969
  27.0476     4      Mn       1      Mn       1         0.105985067           0.537757834             0.382645821
  27.0476     5      Mn       1      Mn       1        -0.735319584           0.740746316             0.735319584
  27.0476     6      Mn       1      Mn       1        -0.098225043           0.536645715             0.380925651
  27.0476     7      Mn       1      Mn       1         0.092773490           0.535868379             0.379811807
  28.0952     1      Mn       1      Mn       1        -0.827371877           0.828061456             0.827371877
  28.0952     2      Mn       1      Mn       1        -0.050679879           0.531660191             0.362161144
  28.0952     3      Mn       1      Mn       1         0.743660956           0.748203121             0.743660956
  28.0952     4      Mn       1      Mn       1         0.037815915           0.530807996             0.361514583
  28.0952     5      Mn       1      Mn       1        -0.724638406           0.731370515             0.724638406
  28.0952     6      Mn       1      Mn       1        -0.029861602           0.530377826             0.361075695
  28.0952     7      Mn       1      Mn       1         0.024234596           0.530128066             0.360867878
  29.1429     1      Mn       1      Mn       1        -0.820447235           0.821360439             0.820447235
  29.1429     2      Mn       1      Mn       1        -0.063614347           0.526008997             0.337954445
  29.1429     3      Mn       1      Mn       1         0.733527011           0.739177395             0.733527011
  29.1429     4      Mn       1      Mn       1         0.050277983           0.524896211             0.336852943
  29.1429     5      Mn       1      Mn       1        -0.713792775           0.722050984             0.713792775
  29.1429     6      Mn       1      Mn       1        -0.042067173           0.524348064             0.336161618
  29.1429     7      Mn       1      Mn       1         0.036241520           0.524000681             0.335788851
  30.1905     1      Mn       1      Mn       1        -0.813446355           0.814634200             0.813446355
  30.1905     2      Mn       1      Mn       1        -0.093919765           0.524586551             0.329780711
  30.1905     3      Mn       1      Mn       1         0.723307869           0.730245008             0.723307869
  30.1905     4      Mn       1      Mn       1         0.080042753           0.522833805             0.327285357
  30.1905     5      Mn       1      Mn       1        -0.702859236           0.712863388             0.702859236
  30.1905     6      Mn       1      Mn       1        -0.071531661           0.521964560             0.325733096
  30.1905     7      Mn       1      Mn       1         0.065478282           0.521360464             0.324743605
  31.2381     1      Mn       1      Mn       1        -0.806418429           0.807939632             0.806418429
  31.2381     2      Mn       1      Mn       1        -0.055722999           0.519609391             0.309844309
  31.2381     3      Mn       1      Mn       1         0.713051596           0.721463494             0.713051596
  31.2381     4      Mn       1      Mn       1         0.041366971           0.518603356             0.308690023
  31.2381     5      Mn       1      Mn       1        -0.691893119           0.703875654             0.691893119
  31.2381     6      Mn       1      Mn       1        -0.032613765           0.518144501             0.307973842
  31.2381     7      Mn       1      Mn       1         0.026358331           0.517865889             0.307589345
  32.2857     1      Mn       1      Mn       1        -0.799307481           0.801228648             0.799307481
  32.2857     2      Mn       1      Mn       1        -0.127024174           0.520670388             0.302537844
  32.2857     3      Mn       1      Mn       1         0.702671701           0.712771408             0.702671701
  32.2857     4      Mn       1      Mn       1         0.112068483           0.518108305             0.298323765
  32.2857     5      Mn       1      Mn       1        -0.680791276           0.695015152             0.680791276
  32.2857     6      Mn       1      Mn       1        -0.102958139           0.516862511             0.295777710
  32.2857     7      Mn       1      Mn       1         0.096450992           0.515952398             0.294103906
  33.3333     1      Mn       1      Mn       1        -0.792117731           0.794513396             0.792117731
  33.3333     2      Mn       1      Mn       1        -0.100187674           0.516180490             0.283384474
  33.3333     3      Mn       1      Mn       1         0.692175093           0.704188098             0.692175093
  33.3333     4      Mn       1      Mn       1         0.084739626           0.514154646             0.279774844
  33.3333     5      Mn       1      Mn       1        -0.669567485           0.686303322             0.669567485
  33.3333     6      Mn       1      Mn       1        -0.075383959           0.513215297             0.277624245
  33.3333     7      Mn       1      Mn       1         0.068670780           0.512538041             0.276231168
  34.3810     1      Mn       1      Mn       1        -0.784878812           0.787831420             0.784878812
  34.3810     2      Mn       1      Mn       1        -0.089949468           0.513584246             0.265723079
  34.3810     3      Mn       1      Mn       1         0.681622591           0.695780386             0.681622591
  34.3810     4      Mn       1      Mn       1         0.073950227           0.511742321             0.262594331
  34.3810     5      Mn       1      Mn       1        -0.658287828           0.677805365             0.658287828
  34.3810     6      Mn       1      Mn       1        -0.064302307           0.510918579             0.260768637
  34.3810     7      Mn       1      Mn       1         0.057357823           0.510336519             0.259638797
  35.4286     1      Mn       1      Mn       1        -0.777511963           0.781117648             0.777511963
  35.4286     2      Mn       1      Mn       1        -0.105076326           0.513447565             0.259337563
  35.4286     3      Mn       1      Mn       1         0.670849236           0.687431556             0.670849236
  35.4286     4      Mn       1      Mn       1         0.088477370           0.511201994             0.255088984
  35.4286     5      Mn       1      Mn       1        -0.646754031           0.669398759             0.646754031
  35.4286     6      Mn       1      Mn       1        -0.078486052           0.510200077             0.252594235
  35.4286     7      Mn       1      Mn       1         0.071287630           0.509463304             0.250980083
  36.4762     1      Mn       1      Mn       1        -0.770079221           0.774439231             0.770079221
  36.4762     2      Mn       1      Mn       1        -0.112406839           0.513481477             0.251931378
  36.4762     3      Mn       1      Mn       1         0.659997704           0.679267468             0.659997704
  36.4762     4      Mn       1      Mn       1         0.095188940           0.511005612             0.247089589
  36.4762     5      Mn       1      Mn       1        -0.635152137           0.661228472             0.635152137
  36.4762     6      Mn       1      Mn       1        -0.084851393           0.509902550             0.244268999
  36.4762     7      Mn       1      Mn       1         0.077389350           0.509080399             0.242440275
  37.5238     1      Mn       1      Mn       1        -0.762533094           0.767760635             0.762533094
  37.5238     2      Mn       1      Mn       1        -0.096680413           0.509830908             0.228810815
  37.5238     3      Mn       1      Mn       1         0.648961102           0.671221161             0.648961102
  37.5238     4      Mn       1      Mn       1         0.078907095           0.507711625             0.224510382
  37.5238     5      Mn       1      Mn       1        -0.623341348           0.653202621             0.623341348
  37.5238     6      Mn       1      Mn       1        -0.068282951           0.506812934             0.222086249
  37.5238     7      Mn       1      Mn       1         0.060590410           0.506158297             0.220574686
  38.5714     1      Mn       1      Mn       1        -0.754871444           0.761090830             0.754871444
  38.5714     2      Mn       1      Mn       1        -0.093039518           0.508758740             0.216593116
  38.5714     3      Mn       1      Mn       1         0.637730403           0.663303249             0.637730403
  38.5714     4      Mn       1      Mn       1         0.074640228           0.506681403             0.212159118
  38.5714     5      Mn       1      Mn       1        -0.611320346           0.645351263             0.611320346
  38.5714     6      Mn       1      Mn       1        -0.063671499           0.505827715             0.209713858
  38.5714     7      Mn       1      Mn       1         0.055718178           0.505203369             0.208205477
  39.6190     1      Mn       1      Mn       1        -0.747018531           0.754379045             0.747018531
  39.6190     2      Mn       1      Mn       1        -0.088224798           0.507379928             0.201301327
  39.6190     3      Mn       1      Mn       1         0.626153448           0.655437701             0.626153448
  39.6190     4      Mn       1      Mn       1         0.069174634           0.505393888             0.196777038
  39.6190     5      Mn       1      Mn       1        -0.598893615           0.637569599             0.598893615
  39.6190     6      Mn       1      Mn       1        -0.057831542           0.504611529             0.194337605
  39.6190     7      Mn       1      Mn       1         0.049592668           0.504041524             0.192877682
  40.6667     1      Mn       1      Mn       1        -0.739054746           0.747703394             0.739054746
  40.6667     2      Mn       1      Mn       1        -0.081130054           0.505951173             0.185802308
  40.6667     3      Mn       1      Mn       1         0.614397275           0.647755802             0.614397275
  40.6667     4      Mn       1      Mn       1         0.061422596           0.504125230             0.181127231
  40.6667     5      Mn       1      Mn       1        -0.586274300           0.630016340             0.586274300
  40.6667     6      Mn       1      Mn       1        -0.049704316           0.503443448             0.178669630
  40.6667     7      Mn       1      Mn       1         0.041189025           0.502954580             0.177232159
  41.7143     1      Mn       1      Mn       1        -0.730834376           0.740956312             0.730834376
  41.7143     2      Mn       1      Mn       1        -0.089882426           0.505997507             0.176025475
  41.7143     3      Mn       1      Mn       1         0.602174908           0.640088556             0.602174908
  41.7143     4      Mn       1      Mn       1         0.069431960           0.503889867             0.170102370
  41.7143     5      Mn       1      Mn       1        -0.573119477           0.622504659             0.573119477
  41.7143     6      Mn       1      Mn       1        -0.057253380           0.503098807             0.166985069
  41.7143     7      Mn       1      Mn       1         0.048410461           0.502523407             0.165117328
  42.7619     1      Mn       1      Mn       1        -0.722397934           0.734183716             0.722397934
  42.7619     2      Mn       1      Mn       1        -0.089992001           0.505558560             0.163853647
  42.7619     3      Mn       1      Mn       1         0.589569148           0.632518837             0.589569148
  42.7619     4      Mn       1      Mn       1         0.068779445           0.503410381             0.157175763
  42.7619     5      Mn       1      Mn       1        -0.559530423           0.615117875             0.559530423
  42.7619     6      Mn       1      Mn       1        -0.056129880           0.502625028             0.153700325
  42.7619     7      Mn       1      Mn       1         0.046949908           0.502054386             0.151646455
  43.8095     1      Mn       1      Mn       1        -0.713759140           0.727412100             0.713759140
  43.8095     2      Mn       1      Mn       1        -0.077754838           0.504263888             0.146450229
  43.8095     3      Mn       1      Mn       1         0.576603903           0.625090132             0.576603903
  43.8095     4      Mn       1      Mn       1         0.055779895           0.502430835             0.140294866
  43.8095     5      Mn       1      Mn       1        -0.545532022           0.607919153             0.545532022
  43.8095     6      Mn       1      Mn       1        -0.042652941           0.501823839             0.137291333
  43.8095     7      Mn       1      Mn       1         0.033133448           0.501400053             0.135677239
  44.8571     1      Mn       1      Mn       1        -0.704826649           0.720584324             0.704826649
  44.8571     2      Mn       1      Mn       1        -0.088288209           0.504581966             0.138104817
  44.8571     3      Mn       1      Mn       1         0.563114117           0.617725729             0.563114117
  44.8571     4      Mn       1      Mn       1         0.065446678           0.502404039             0.129188394
  44.8571     5      Mn       1      Mn       1        -0.530945128           0.600815037             0.530945128
  44.8571     6      Mn       1      Mn       1        -0.051750381           0.501668309             0.124676868
  44.8571     7      Mn       1      Mn       1         0.041849071           0.501136482             0.122092531
  45.9048     1      Mn       1      Mn       1        -0.695613558           0.713721100             0.695613558
  45.9048     2      Mn       1      Mn       1        -0.089156299           0.504334992             0.127078140
  45.9048     3      Mn       1      Mn       1         0.549107014           0.610455627             0.549107014
  45.9048     4      Mn       1      Mn       1         0.065431607           0.502085285             0.116363757
  45.9048     5      Mn       1      Mn       1        -0.515759532           0.593849113             0.515759532
  45.9048     6      Mn       1      Mn       1        -0.051150641           0.501334332             0.110944110
  45.9048     7      Mn       1      Mn       1         0.040850781           0.500804322             0.107872674
  46.9524     1      Mn       1      Mn       1        -0.686122874           0.706845048             0.686122874
  46.9524     2      Mn       1      Mn       1        -0.086361335           0.503924340             0.114506107
  46.9524     3      Mn       1      Mn       1         0.534597322           0.603314480             0.534597322
  46.9524     4      Mn       1      Mn       1         0.061691334           0.501721663             0.102165000
  46.9524     5      Mn       1      Mn       1        -0.500004232           0.587042502             0.500004232
  46.9524     6      Mn       1      Mn       1        -0.046762169           0.501027406             0.096028267
  46.9524     7      Mn       1      Mn       1         0.036034014           0.500548741             0.092669302
  48.0000     1      Mn       1      Mn       1        -0.676547595           0.700081008             0.676547595
  48.0000     2      Mn       1      Mn       1        -0.086710475           0.503793352             0.107042574
  48.0000     3      Mn       1      Mn       1         0.520025263           0.596498464             0.520025263
  48.0000     4      Mn       1      Mn       1         0.061055320           0.501555219             0.092636802
  48.0000     5      Mn       1      Mn       1        -0.484216692           0.580614970             0.484216692
  48.0000     6      Mn       1      Mn       1        -0.045434987           0.500860903             0.085482193
  48.0000     7      Mn       1      Mn       1         0.034244214           0.500397343             0.081625502
  49.0476     1      Mn       1      Mn       1        -0.666814716           0.693396377             0.666814716
  49.0476     2      Mn       1      Mn       1        -0.091610104           0.504003683             0.104606481
  49.0476     3      Mn       1      Mn       1         0.505239774           0.589932262             0.505239774
  49.0476     4      Mn       1      Mn       1         0.064956697           0.501575834             0.087124152
  49.0476     5      Mn       1      Mn       1        -0.468215831           0.574472079             0.468215831
  49.0476     6      Mn       1      Mn       1        -0.048668173           0.500826217             0.078199477
  49.0476     7      Mn       1      Mn       1         0.037036072           0.500318414             0.073266160
  50.0952     1      Mn       1      Mn       1        -0.657029322           0.686846638             0.657029322
  50.0952     2      Mn       1      Mn       1        -0.090820396           0.503816292             0.099496967
  50.0952     3      Mn       1      Mn       1         0.490444532           0.583691567             0.490444532
  50.0952     4      Mn       1      Mn       1         0.063170824           0.501367046             0.079814182
  50.0952     5      Mn       1      Mn       1        -0.452248017           0.568691197             0.452248017
  50.0952     6      Mn       1      Mn       1        -0.046222752           0.500646147             0.069759669
  50.0952     7      Mn       1      Mn       1         0.034153927           0.500171358             0.064279495
  51.1429     1      Mn       1      Mn       1        -0.647406854           0.680565045             0.647406854
  51.1429     2      Mn       1      Mn       1        -0.093529785           0.503956838             0.098888294
  51.1429     3      Mn       1      Mn       1         0.476091080           0.577930187             0.476091080
  51.1429     4      Mn       1      Mn       1         0.064913092           0.501380752             0.076664156
  51.1429     5      Mn       1      Mn       1        -0.436845009           0.563419887             0.436845009
  51.1429     6      Mn       1      Mn       1        -0.047363592           0.500643604             0.065126260
  51.1429     7      Mn       1      Mn       1         0.034875108           0.500150174             0.058748378
  52.1905     1      Mn       1      Mn       1        -0.637756867           0.674428373             0.637756867
  52.1905     2      Mn       1      Mn       1        -0.093752465           0.503867786             0.097242045
  52.1905     3      Mn       1      Mn       1         0.461774040           0.572468426             0.461774040
  52.1905     4      Mn       1      Mn       1         0.064145127           0.501251196             0.073005132
  52.1905     5      Mn       1      Mn       1        -0.421510987           0.558475188             0.421510987
  52.1905     6      Mn       1      Mn       1        -0.045984725           0.500519675             0.060365299
  52.1905     7      Mn       1      Mn       1         0.033073281           0.500044720             0.053434819
  53.2381     1      Mn       1      Mn       1        -0.628272388           0.668547788             0.628272388
  53.2381     2      Mn       1      Mn       1        -0.093204507           0.503752498             0.095474374
  53.2381     3      Mn       1      Mn       1         0.447869961           0.567420973             0.447869961
  53.2381     4      Mn       1      Mn       1         0.062656744           0.501124504             0.069426670
  53.2381     5      Mn       1      Mn       1        -0.406707759           0.553949139             0.406707759
  53.2381     6      Mn       1      Mn       1        -0.043943162           0.500419321             0.055827486
  53.2381     7      Mn       1      Mn       1         0.030635537           0.499963326             0.048447435
  54.2857     1      Mn       1      Mn       1        -0.618887458           0.662860853             0.618887458
  54.2857     2      Mn       1      Mn       1        -0.092736203           0.503667398             0.094349057
  54.2857     3      Mn       1      Mn       1         0.434247157           0.562698007             0.434247157
  54.2857     4      Mn       1      Mn       1         0.061263216           0.501030270             0.066787919
  54.2857     5      Mn       1      Mn       1        -0.392266810           0.549766875             0.392266810
  54.2857     6      Mn       1      Mn       1        -0.042045735           0.500359022             0.052389368
  54.2857     7      Mn       1      Mn       1         0.028366404           0.499937143             0.044628246
  55.3333     1      Mn       1      Mn       1        -0.609692344           0.657427231             0.609692344
  55.3333     2      Mn       1      Mn       1        -0.092786328           0.503645834             0.093877304
  55.3333     3      Mn       1      Mn       1         0.421061228           0.558340174             0.421061228
  55.3333     4      Mn       1      Mn       1         0.060421706           0.500978360             0.064864278
  55.3333     5      Mn       1      Mn       1        -0.378356034           0.545942233             0.378356034
  55.3333     6      Mn       1      Mn       1        -0.040756857           0.500321025             0.049695987
  55.3333     7      Mn       1      Mn       1         0.026732536           0.499917642             0.041568691
  56.3810     1      Mn       1      Mn       1        -0.600606517           0.652182206             0.600606517
  56.3810     2      Mn       1      Mn       1        -0.092580808           0.503583521             0.093334907
  56.3810     3      Mn       1      Mn       1         0.408169088           0.554281533             0.408169088
  56.3810     4      Mn       1      Mn       1         0.059350526           0.500893566             0.062945192
  56.3810     5      Mn       1      Mn       1        -0.364818095           0.542423592             0.364818095
  56.3810     6      Mn       1      Mn       1        -0.039260325           0.500256900             0.047029243
  56.3810     7      Mn       1      Mn       1         0.024897032           0.499870187             0.038553585
  57.4286     1      Mn       1      Mn       1        -0.591733040           0.647174703             0.591733040
  57.4286     2      Mn       1      Mn       1        -0.092271071           0.503514778             0.092806168
  57.4286     3      Mn       1      Mn       1         0.395743570           0.550536885             0.395743570
  57.4286     4      Mn       1      Mn       1         0.058214533           0.500822956             0.061229822
  57.4286     5      Mn       1      Mn       1        -0.351845341           0.539212629             0.351845341
  57.4286     6      Mn       1      Mn       1        -0.037764261           0.500215412             0.044754925
  57.4286     7      Mn       1      Mn       1         0.023091088           0.499851940             0.036072648
  58.4762     1      Mn       1      Mn       1        -0.582993054           0.642351425             0.582993054
  58.4762     2      Mn       1      Mn       1        -0.091872761           0.503476525             0.092244623
  58.4762     3      Mn       1      Mn       1         0.383640428           0.547044366             0.383640428
  58.4762     4      Mn       1      Mn       1         0.056998323           0.500773866             0.059538322
  58.4762     5      Mn       1      Mn       1        -0.339270698           0.536241990             0.339270698
  58.4762     6      Mn       1      Mn       1        -0.036205671           0.500187570             0.042551010
  58.4762     7      Mn       1      Mn       1         0.021237516           0.499842025             0.033674819
  59.5238     1      Mn       1      Mn       1        -0.574467948           0.637757104             0.574467948
  59.5238     2      Mn       1      Mn       1        -0.091300115           0.503399775             0.091592935
  59.5238     3      Mn       1      Mn       1         0.371975639           0.543839250             0.371975639
  59.5238     4      Mn       1      Mn       1         0.055655494           0.500701047             0.057906772
  59.5238     5      Mn       1      Mn       1        -0.327207622           0.533537041             0.327207622
  59.5238     6      Mn       1      Mn       1        -0.034568490           0.500143816             0.040509631
  59.5238     7      Mn       1      Mn       1         0.019330469           0.499821848             0.031542796
  60.5714     1      Mn       1      Mn       1        -0.566105499           0.633341184             0.566105499
  60.5714     2      Mn       1      Mn       1        -0.090761856           0.503336465             0.090976088
  60.5714     3      Mn       1      Mn       1         0.360657883           0.540845915             0.360657883
  60.5714     4      Mn       1      Mn       1         0.054380534           0.500649991             0.056340396
  60.5714     5      Mn       1      Mn       1        -0.315567886           0.531043379             0.315567886
  60.5714     6      Mn       1      Mn       1        -0.033052292           0.500116990             0.038560357
  60.5714     7      Mn       1      Mn       1         0.017564935           0.499822310             0.029519464
  61.6190     1      Mn       1      Mn       1        -0.557907995           0.629096726             0.557907995
  61.6190     2      Mn       1      Mn       1        -0.090271394           0.503280164             0.090433865
  61.6190     3      Mn       1      Mn       1         0.349713322           0.538077581             0.349713322
  61.6190     4      Mn       1      Mn       1         0.053190417           0.500600936             0.054939166
  61.6190     5      Mn       1      Mn       1        -0.304378351           0.528762686             0.304378351
  61.6190     6      Mn       1      Mn       1        -0.031644002           0.500087156             0.036853592
  61.6190     7      Mn       1      Mn       1         0.015921780           0.499812916             0.027773001
  62.6667     1      Mn       1      Mn       1        -0.549953191           0.625072852             0.549953191
  62.6667     2      Mn       1      Mn       1        -0.089540214           0.503232649             0.089667716
  62.6667     3      Mn       1      Mn       1         0.339219327           0.535535054             0.339219327
  62.6667     4      Mn       1      Mn       1         0.051796810           0.500561847             0.053380198
  62.6667     5      Mn       1      Mn       1        -0.293700087           0.526680025             0.293700087
  62.6667     6      Mn       1      Mn       1        -0.030084824           0.500079129             0.035083638
  62.6667     7      Mn       1      Mn       1         0.014145635           0.499819011             0.026101807
  63.7143     1      Mn       1      Mn       1        -0.542154683           0.621200358             0.542154683
  63.7143     2      Mn       1      Mn       1        -0.089119832           0.503166034             0.089214903
  63.7143     3      Mn       1      Mn       1         0.329071374           0.533169372             0.329071374
  63.7143     4      Mn       1      Mn       1         0.050724185           0.500515814             0.052144154
  63.7143     5      Mn       1      Mn       1        -0.283433756           0.524760454             0.283433756
  63.7143     6      Mn       1      Mn       1        -0.028872622           0.500061595             0.033625231
  63.7143     7      Mn       1      Mn       1         0.012738266           0.499820470             0.024664138
  64.7619     1      Mn       1      Mn       1        -0.534562391           0.617507637             0.534562391
  64.7619     2      Mn       1      Mn       1        -0.088371202           0.503101647             0.088450445
  64.7619     3      Mn       1      Mn       1         0.319311427           0.530989751             0.319311427
  64.7619     4      Mn       1      Mn       1         0.049371584           0.500460789             0.050684675
  64.7619     5      Mn       1      Mn       1        -0.273612141           0.523006646             0.273612141
  64.7619     6      Mn       1      Mn       1        -0.027418683           0.500027790             0.032020478
  64.7619     7      Mn       1      Mn       1         0.011101110           0.499812866             0.023208247
  65.8095     1      Mn       1      Mn       1        -0.527149158           0.613971278             0.527149158
  65.8095     2      Mn       1      Mn       1        -0.087813377           0.503051644             0.087873619
  65.8095     3      Mn       1      Mn       1         0.309890245           0.528973494             0.309890245
  65.8095     4      Mn       1      Mn       1         0.048242476           0.500434720             0.049454143
  65.8095     5      Mn       1      Mn       1        -0.264169847           0.521395496             0.264169847
  65.8095     6      Mn       1      Mn       1        -0.026237839           0.500026489             0.030695746
  65.8095     7      Mn       1      Mn       1         0.009760442           0.499824395             0.022035210
  66.8571     1      Mn       1      Mn       1        -0.519904717           0.610578776             0.519904717
  66.8571     2      Mn       1      Mn       1        -0.087165540           0.502993971             0.087214251
  66.8571     3      Mn       1      Mn       1         0.300824849           0.527096385             0.300824849
  66.8571     4      Mn       1      Mn       1         0.047058766           0.500395822             0.048187655
  66.8571     5      Mn       1      Mn       1        -0.255159378           0.519920487             0.255159378
  66.8571     6      Mn       1      Mn       1        -0.025015209           0.500015454             0.029366142
  66.8571     7      Mn       1      Mn       1         0.008386708           0.499822792             0.020899580
  67.9048     1      Mn       1      Mn       1        -0.512876528           0.607348073             0.512876528
  67.9048     2      Mn       1      Mn       1        -0.086590585           0.502954220             0.086631207
  67.9048     3      Mn       1      Mn       1         0.292131273           0.525373544             0.292131273
  67.9048     4      Mn       1      Mn       1         0.045963212           0.500373366             0.047032333
  67.9048     5      Mn       1      Mn       1        -0.246559827           0.518558287             0.246559827
  67.9048     6      Mn       1      Mn       1        -0.023914295           0.500007085             0.028180646
  67.9048     7      Mn       1      Mn       1         0.007165883           0.499840238             0.019908181
  68.9524     1      Mn       1      Mn       1        -0.506012340           0.604251376             0.506012340
  68.9524     2      Mn       1      Mn       1        -0.085995633           0.502903044             0.086029079
  68.9524     3      Mn       1      Mn       1         0.283742185           0.523762503             0.283742185
  68.9524     4      Mn       1      Mn       1         0.044894139           0.500342045             0.045908206
  68.9524     5      Mn       1      Mn       1        -0.238292155           0.517299285             0.238292155
  68.9524     6      Mn       1      Mn       1        -0.022868476           0.499996316             0.027087588
  68.9524     7      Mn       1      Mn       1         0.005996245           0.499843414             0.019082566
  70.0000     1      Mn       1      Mn       1        -0.499279541           0.601266884             0.499279541
  70.0000     2      Mn       1      Mn       1        -0.085270364           0.502832611             0.085300207
  70.0000     3      Mn       1      Mn       1         0.275626992           0.522267477             0.275626992
  70.0000     4      Mn       1      Mn       1         0.043695888           0.500313806             0.044677613
  70.0000     5      Mn       1      Mn       1        -0.230354901           0.516146494             0.230354901
  70.0000     6      Mn       1      Mn       1        -0.021719774           0.499989328             0.025919817
  70.0000     7      Mn       1      Mn       1         0.004747698           0.499849604             0.018247061
