 #written on  7Aug2021 at 23:11:10 
 #----------------- MONTECARLO -------------------#
 #        M                      P(M)             #
 #------------------------------------------------#
 #T=     4.0000
  -0.40000000E+01           0.00000000E+00
  -0.39900000E+01           0.00000000E+00
  -0.39800000E+01           0.00000000E+00
  -0.39700000E+01           0.00000000E+00
  -0.39600000E+01           0.00000000E+00
  -0.39500000E+01           0.00000000E+00
  -0.39400000E+01           0.00000000E+00
  -0.39300000E+01           0.00000000E+00
  -0.39200000E+01           0.00000000E+00
  -0.39100000E+01           0.00000000E+00
  -0.39000000E+01           0.00000000E+00
  -0.38900000E+01           0.00000000E+00
  -0.38800000E+01           0.00000000E+00
  -0.38700000E+01           0.00000000E+00
  -0.38600000E+01           0.00000000E+00
  -0.38500000E+01           0.00000000E+00
  -0.38400000E+01           0.00000000E+00
  -0.38300000E+01           0.00000000E+00
  -0.38200000E+01           0.00000000E+00
  -0.38100000E+01           0.00000000E+00
  -0.38000000E+01           0.00000000E+00
  -0.37900000E+01           0.00000000E+00
  -0.37800000E+01           0.00000000E+00
  -0.37700000E+01           0.00000000E+00
  -0.37600000E+01           0.00000000E+00
  -0.37500000E+01           0.00000000E+00
  -0.37400000E+01           0.00000000E+00
  -0.37300000E+01           0.00000000E+00
  -0.37200000E+01           0.00000000E+00
  -0.37100000E+01           0.00000000E+00
  -0.37000000E+01           0.00000000E+00
  -0.36900000E+01           0.00000000E+00
  -0.36800000E+01           0.00000000E+00
  -0.36700000E+01           0.00000000E+00
  -0.36600000E+01           0.00000000E+00
  -0.36500000E+01           0.00000000E+00
  -0.36400000E+01           0.00000000E+00
  -0.36300000E+01           0.00000000E+00
  -0.36200000E+01           0.00000000E+00
  -0.36100000E+01           0.00000000E+00
  -0.36000000E+01           0.00000000E+00
  -0.35900000E+01           0.00000000E+00
  -0.35800000E+01           0.00000000E+00
  -0.35700000E+01           0.00000000E+00
  -0.35600000E+01           0.00000000E+00
  -0.35500000E+01           0.00000000E+00
  -0.35400000E+01           0.00000000E+00
  -0.35300000E+01           0.00000000E+00
  -0.35200000E+01           0.00000000E+00
  -0.35100000E+01           0.00000000E+00
  -0.35000000E+01           0.00000000E+00
  -0.34900000E+01           0.00000000E+00
  -0.34800000E+01           0.00000000E+00
  -0.34700000E+01           0.00000000E+00
  -0.34600000E+01           0.00000000E+00
  -0.34500000E+01           0.00000000E+00
  -0.34400000E+01           0.00000000E+00
  -0.34300000E+01           0.00000000E+00
  -0.34200000E+01           0.00000000E+00
  -0.34100000E+01           0.00000000E+00
  -0.34000000E+01           0.00000000E+00
  -0.33900000E+01           0.00000000E+00
  -0.33800000E+01           0.00000000E+00
  -0.33700000E+01           0.00000000E+00
  -0.33600000E+01           0.00000000E+00
  -0.33500000E+01           0.00000000E+00
  -0.33400000E+01           0.00000000E+00
  -0.33300000E+01           0.00000000E+00
  -0.33200000E+01           0.00000000E+00
  -0.33100000E+01           0.00000000E+00
  -0.33000000E+01           0.00000000E+00
  -0.32900000E+01           0.00000000E+00
  -0.32800000E+01           0.00000000E+00
  -0.32700000E+01           0.00000000E+00
  -0.32600000E+01           0.00000000E+00
  -0.32500000E+01           0.00000000E+00
  -0.32400000E+01           0.00000000E+00
  -0.32300000E+01           0.00000000E+00
  -0.32200000E+01           0.00000000E+00
  -0.32100000E+01           0.00000000E+00
  -0.32000000E+01           0.00000000E+00
  -0.31900000E+01           0.00000000E+00
  -0.31800000E+01           0.00000000E+00
  -0.31700000E+01           0.00000000E+00
  -0.31600000E+01           0.00000000E+00
  -0.31500000E+01           0.00000000E+00
  -0.31400000E+01           0.00000000E+00
  -0.31300000E+01           0.00000000E+00
  -0.31200000E+01           0.00000000E+00
  -0.31100000E+01           0.00000000E+00
  -0.31000000E+01           0.00000000E+00
  -0.30900000E+01           0.00000000E+00
  -0.30800000E+01           0.00000000E+00
  -0.30700000E+01           0.00000000E+00
  -0.30600000E+01           0.00000000E+00
  -0.30500000E+01           0.00000000E+00
  -0.30400000E+01           0.00000000E+00
  -0.30300000E+01           0.00000000E+00
  -0.30200000E+01           0.00000000E+00
  -0.30100000E+01           0.00000000E+00
  -0.30000000E+01           0.00000000E+00
  -0.29900000E+01           0.00000000E+00
  -0.29800000E+01           0.00000000E+00
  -0.29700000E+01           0.00000000E+00
  -0.29600000E+01           0.00000000E+00
  -0.29500000E+01           0.00000000E+00
  -0.29400000E+01           0.00000000E+00
  -0.29300000E+01           0.00000000E+00
  -0.29200000E+01           0.00000000E+00
  -0.29100000E+01           0.00000000E+00
  -0.29000000E+01           0.00000000E+00
  -0.28900000E+01           0.00000000E+00
  -0.28800000E+01           0.00000000E+00
  -0.28700000E+01           0.00000000E+00
  -0.28600000E+01           0.00000000E+00
  -0.28500000E+01           0.00000000E+00
  -0.28400000E+01           0.00000000E+00
  -0.28300000E+01           0.00000000E+00
  -0.28200000E+01           0.00000000E+00
  -0.28100000E+01           0.00000000E+00
  -0.28000000E+01           0.00000000E+00
  -0.27900000E+01           0.00000000E+00
  -0.27800000E+01           0.00000000E+00
  -0.27700000E+01           0.00000000E+00
  -0.27600000E+01           0.00000000E+00
  -0.27500000E+01           0.00000000E+00
  -0.27400000E+01           0.00000000E+00
  -0.27300000E+01           0.00000000E+00
  -0.27200000E+01           0.00000000E+00
  -0.27100000E+01           0.00000000E+00
  -0.27000000E+01           0.00000000E+00
  -0.26900000E+01           0.00000000E+00
  -0.26800000E+01           0.00000000E+00
  -0.26700000E+01           0.00000000E+00
  -0.26600000E+01           0.00000000E+00
  -0.26500000E+01           0.00000000E+00
  -0.26400000E+01           0.00000000E+00
  -0.26300000E+01           0.00000000E+00
  -0.26200000E+01           0.00000000E+00
  -0.26100000E+01           0.00000000E+00
  -0.26000000E+01           0.00000000E+00
  -0.25900000E+01           0.00000000E+00
  -0.25800000E+01           0.00000000E+00
  -0.25700000E+01           0.00000000E+00
  -0.25600000E+01           0.00000000E+00
  -0.25500000E+01           0.00000000E+00
  -0.25400000E+01           0.00000000E+00
  -0.25300000E+01           0.00000000E+00
  -0.25200000E+01           0.00000000E+00
  -0.25100000E+01           0.00000000E+00
  -0.25000000E+01           0.00000000E+00
  -0.24900000E+01           0.00000000E+00
  -0.24800000E+01           0.00000000E+00
  -0.24700000E+01           0.00000000E+00
  -0.24600000E+01           0.00000000E+00
  -0.24500000E+01           0.00000000E+00
  -0.24400000E+01           0.00000000E+00
  -0.24300000E+01           0.00000000E+00
  -0.24200000E+01           0.00000000E+00
  -0.24100000E+01           0.00000000E+00
  -0.24000000E+01           0.00000000E+00
  -0.23900000E+01           0.00000000E+00
  -0.23800000E+01           0.00000000E+00
  -0.23700000E+01           0.00000000E+00
  -0.23600000E+01           0.00000000E+00
  -0.23500000E+01           0.00000000E+00
  -0.23400000E+01           0.00000000E+00
  -0.23300000E+01           0.00000000E+00
  -0.23200000E+01           0.00000000E+00
  -0.23100000E+01           0.00000000E+00
  -0.23000000E+01           0.00000000E+00
  -0.22900000E+01           0.00000000E+00
  -0.22800000E+01           0.00000000E+00
  -0.22700000E+01           0.00000000E+00
  -0.22600000E+01           0.00000000E+00
  -0.22500000E+01           0.00000000E+00
  -0.22400000E+01           0.00000000E+00
  -0.22300000E+01           0.00000000E+00
  -0.22200000E+01           0.00000000E+00
  -0.22100000E+01           0.00000000E+00
  -0.22000000E+01           0.00000000E+00
  -0.21900000E+01           0.00000000E+00
  -0.21800000E+01           0.00000000E+00
  -0.21700000E+01           0.00000000E+00
  -0.21600000E+01           0.00000000E+00
  -0.21500000E+01           0.00000000E+00
  -0.21400000E+01           0.00000000E+00
  -0.21300000E+01           0.00000000E+00
  -0.21200000E+01           0.00000000E+00
  -0.21100000E+01           0.00000000E+00
  -0.21000000E+01           0.00000000E+00
  -0.20900000E+01           0.00000000E+00
  -0.20800000E+01           0.00000000E+00
  -0.20700000E+01           0.00000000E+00
  -0.20600000E+01           0.00000000E+00
  -0.20500000E+01           0.00000000E+00
  -0.20400000E+01           0.00000000E+00
  -0.20300000E+01           0.00000000E+00
  -0.20200000E+01           0.00000000E+00
  -0.20100000E+01           0.00000000E+00
  -0.20000000E+01           0.00000000E+00
  -0.19900000E+01           0.00000000E+00
  -0.19800000E+01           0.00000000E+00
  -0.19700000E+01           0.00000000E+00
  -0.19600000E+01           0.00000000E+00
  -0.19500000E+01           0.00000000E+00
  -0.19400000E+01           0.00000000E+00
  -0.19300000E+01           0.00000000E+00
  -0.19200000E+01           0.00000000E+00
  -0.19100000E+01           0.00000000E+00
  -0.19000000E+01           0.00000000E+00
  -0.18900000E+01           0.00000000E+00
  -0.18800000E+01           0.00000000E+00
  -0.18700000E+01           0.00000000E+00
  -0.18600000E+01           0.00000000E+00
  -0.18500000E+01           0.00000000E+00
  -0.18400000E+01           0.00000000E+00
  -0.18300000E+01           0.00000000E+00
  -0.18200000E+01           0.00000000E+00
  -0.18100000E+01           0.00000000E+00
  -0.18000000E+01           0.00000000E+00
  -0.17900000E+01           0.00000000E+00
  -0.17800000E+01           0.00000000E+00
  -0.17700000E+01           0.00000000E+00
  -0.17600000E+01           0.00000000E+00
  -0.17500000E+01           0.00000000E+00
  -0.17400000E+01           0.00000000E+00
  -0.17300000E+01           0.00000000E+00
  -0.17200000E+01           0.00000000E+00
  -0.17100000E+01           0.00000000E+00
  -0.17000000E+01           0.00000000E+00
  -0.16900000E+01           0.00000000E+00
  -0.16800000E+01           0.00000000E+00
  -0.16700000E+01           0.00000000E+00
  -0.16600000E+01           0.00000000E+00
  -0.16500000E+01           0.00000000E+00
  -0.16400000E+01           0.00000000E+00
  -0.16300000E+01           0.00000000E+00
  -0.16200000E+01           0.00000000E+00
  -0.16100000E+01           0.00000000E+00
  -0.16000000E+01           0.00000000E+00
  -0.15900000E+01           0.00000000E+00
  -0.15800000E+01           0.00000000E+00
  -0.15700000E+01           0.00000000E+00
  -0.15600000E+01           0.00000000E+00
  -0.15500000E+01           0.00000000E+00
  -0.15400000E+01           0.00000000E+00
  -0.15300000E+01           0.00000000E+00
  -0.15200000E+01           0.00000000E+00
  -0.15100000E+01           0.00000000E+00
  -0.15000000E+01           0.00000000E+00
  -0.14900000E+01           0.00000000E+00
  -0.14800000E+01           0.00000000E+00
  -0.14700000E+01           0.00000000E+00
  -0.14600000E+01           0.00000000E+00
  -0.14500000E+01           0.00000000E+00
  -0.14400000E+01           0.00000000E+00
  -0.14300000E+01           0.00000000E+00
  -0.14200000E+01           0.00000000E+00
  -0.14100000E+01           0.00000000E+00
  -0.14000000E+01           0.00000000E+00
  -0.13900000E+01           0.00000000E+00
  -0.13800000E+01           0.00000000E+00
  -0.13700000E+01           0.00000000E+00
  -0.13600000E+01           0.00000000E+00
  -0.13500000E+01           0.00000000E+00
  -0.13400000E+01           0.00000000E+00
  -0.13300000E+01           0.00000000E+00
  -0.13200000E+01           0.00000000E+00
  -0.13100000E+01           0.00000000E+00
  -0.13000000E+01           0.00000000E+00
  -0.12900000E+01           0.00000000E+00
  -0.12800000E+01           0.00000000E+00
  -0.12700000E+01           0.00000000E+00
  -0.12600000E+01           0.00000000E+00
  -0.12500000E+01           0.00000000E+00
  -0.12400000E+01           0.00000000E+00
  -0.12300000E+01           0.00000000E+00
  -0.12200000E+01           0.00000000E+00
  -0.12100000E+01           0.00000000E+00
  -0.12000000E+01           0.00000000E+00
  -0.11900000E+01           0.00000000E+00
  -0.11800000E+01           0.00000000E+00
  -0.11700000E+01           0.00000000E+00
  -0.11600000E+01           0.00000000E+00
  -0.11500000E+01           0.00000000E+00
  -0.11400000E+01           0.00000000E+00
  -0.11300000E+01           0.00000000E+00
  -0.11200000E+01           0.00000000E+00
  -0.11100000E+01           0.00000000E+00
  -0.11000000E+01           0.00000000E+00
  -0.10900000E+01           0.00000000E+00
  -0.10800000E+01           0.00000000E+00
  -0.10700000E+01           0.00000000E+00
  -0.10600000E+01           0.00000000E+00
  -0.10500000E+01           0.00000000E+00
  -0.10400000E+01           0.00000000E+00
  -0.10300000E+01           0.00000000E+00
  -0.10200000E+01           0.00000000E+00
  -0.10100000E+01           0.00000000E+00
  -0.10000000E+01           0.00000000E+00
  -0.99000000E+00           0.00000000E+00
  -0.98000000E+00           0.00000000E+00
  -0.97000000E+00           0.00000000E+00
  -0.96000000E+00           0.00000000E+00
  -0.95000000E+00           0.00000000E+00
  -0.94000000E+00           0.00000000E+00
  -0.93000000E+00           0.00000000E+00
  -0.92000000E+00           0.00000000E+00
  -0.91000000E+00           0.00000000E+00
  -0.90000000E+00           0.00000000E+00
  -0.89000000E+00           0.00000000E+00
  -0.88000000E+00           0.00000000E+00
  -0.87000000E+00           0.00000000E+00
  -0.86000000E+00           0.00000000E+00
  -0.85000000E+00           0.00000000E+00
  -0.84000000E+00           0.00000000E+00
  -0.83000000E+00           0.00000000E+00
  -0.82000000E+00           0.00000000E+00
  -0.81000000E+00           0.00000000E+00
  -0.80000000E+00           0.00000000E+00
  -0.79000000E+00           0.00000000E+00
  -0.78000000E+00           0.00000000E+00
  -0.77000000E+00           0.00000000E+00
  -0.76000000E+00           0.00000000E+00
  -0.75000000E+00           0.00000000E+00
  -0.74000000E+00           0.00000000E+00
  -0.73000000E+00           0.00000000E+00
  -0.72000000E+00           0.00000000E+00
  -0.71000000E+00           0.00000000E+00
  -0.70000000E+00           0.00000000E+00
  -0.69000000E+00           0.00000000E+00
  -0.68000000E+00           0.00000000E+00
  -0.67000000E+00           0.00000000E+00
  -0.66000000E+00           0.00000000E+00
  -0.65000000E+00           0.00000000E+00
  -0.64000000E+00           0.00000000E+00
  -0.63000000E+00           0.00000000E+00
  -0.62000000E+00           0.00000000E+00
  -0.61000000E+00           0.00000000E+00
  -0.60000000E+00           0.00000000E+00
  -0.59000000E+00           0.00000000E+00
  -0.58000000E+00           0.00000000E+00
  -0.57000000E+00           0.00000000E+00
  -0.56000000E+00           0.00000000E+00
  -0.55000000E+00           0.00000000E+00
  -0.54000000E+00           0.00000000E+00
  -0.53000000E+00           0.00000000E+00
  -0.52000000E+00           0.00000000E+00
  -0.51000000E+00           0.00000000E+00
  -0.50000000E+00           0.00000000E+00
  -0.49000000E+00           0.00000000E+00
  -0.48000000E+00           0.00000000E+00
  -0.47000000E+00           0.00000000E+00
  -0.46000000E+00           0.00000000E+00
  -0.45000000E+00           0.00000000E+00
  -0.44000000E+00           0.00000000E+00
  -0.43000000E+00           0.00000000E+00
  -0.42000000E+00           0.00000000E+00
  -0.41000000E+00           0.00000000E+00
  -0.40000000E+00           0.00000000E+00
  -0.39000000E+00           0.00000000E+00
  -0.38000000E+00           0.00000000E+00
  -0.37000000E+00           0.00000000E+00
  -0.36000000E+00           0.00000000E+00
  -0.35000000E+00           0.00000000E+00
  -0.34000000E+00           0.00000000E+00
  -0.33000000E+00           0.00000000E+00
  -0.32000000E+00           0.00000000E+00
  -0.31000000E+00           0.00000000E+00
  -0.30000000E+00           0.00000000E+00
  -0.29000000E+00           0.00000000E+00
  -0.28000000E+00           0.00000000E+00
  -0.27000000E+00           0.00000000E+00
  -0.26000000E+00           0.00000000E+00
  -0.25000000E+00           0.00000000E+00
  -0.24000000E+00           0.00000000E+00
  -0.23000000E+00           0.00000000E+00
  -0.22000000E+00           0.00000000E+00
  -0.21000000E+00           0.00000000E+00
  -0.20000000E+00           0.00000000E+00
  -0.19000000E+00           0.00000000E+00
  -0.18000000E+00           0.00000000E+00
  -0.17000000E+00           0.00000000E+00
  -0.16000000E+00           0.00000000E+00
  -0.15000000E+00           0.00000000E+00
  -0.14000000E+00           0.00000000E+00
  -0.13000000E+00           0.00000000E+00
  -0.12000000E+00           0.00000000E+00
  -0.11000000E+00           0.00000000E+00
  -0.10000000E+00           0.00000000E+00
  -0.90000000E-01           0.00000000E+00
  -0.80000000E-01           0.00000000E+00
  -0.70000000E-01           0.00000000E+00
  -0.60000000E-01           0.00000000E+00
  -0.50000000E-01           0.00000000E+00
  -0.40000000E-01           0.00000000E+00
  -0.30000000E-01           0.00000000E+00
  -0.20000000E-01           0.00000000E+00
  -0.10000000E-01           0.00000000E+00
   0.00000000E+00           0.21595486E-02
   0.10000000E-01           0.50734983E-01
   0.20000000E-01           0.17379149E+00
   0.30000000E-01           0.35121927E+00
   0.40000000E-01           0.56418229E+00
   0.50000000E-01           0.79774123E+00
   0.60000000E-01           0.10433859E+01
   0.70000000E-01           0.12874023E+01
   0.80000000E-01           0.15316796E+01
   0.90000000E-01           0.17624731E+01
   0.10000000E+00           0.19798268E+01
   0.11000000E+00           0.21831312E+01
   0.12000000E+00           0.23655569E+01
   0.13000000E+00           0.25294635E+01
   0.14000000E+00           0.26707714E+01
   0.15000000E+00           0.27951504E+01
   0.16000000E+00           0.28990424E+01
   0.17000000E+00           0.29789945E+01
   0.18000000E+00           0.30423875E+01
   0.19000000E+00           0.30829513E+01
   0.20000000E+00           0.31041114E+01
   0.21000000E+00           0.31150576E+01
   0.22000000E+00           0.30994708E+01
   0.23000000E+00           0.30738695E+01
   0.24000000E+00           0.30379414E+01
   0.25000000E+00           0.29819906E+01
   0.26000000E+00           0.29164244E+01
   0.27000000E+00           0.28396463E+01
   0.28000000E+00           0.27581783E+01
   0.29000000E+00           0.26624435E+01
   0.30000000E+00           0.25677899E+01
   0.31000000E+00           0.24606325E+01
   0.32000000E+00           0.23547206E+01
   0.33000000E+00           0.22428583E+01
   0.34000000E+00           0.21304339E+01
   0.35000000E+00           0.20151273E+01
   0.36000000E+00           0.18993433E+01
   0.37000000E+00           0.17849585E+01
   0.38000000E+00           0.16733370E+01
   0.39000000E+00           0.15630475E+01
   0.40000000E+00           0.14560422E+01
   0.41000000E+00           0.13515736E+01
   0.42000000E+00           0.12525720E+01
   0.43000000E+00           0.11552166E+01
   0.44000000E+00           0.10617198E+01
   0.45000000E+00           0.97372457E+00
   0.46000000E+00           0.89132283E+00
   0.47000000E+00           0.81163333E+00
   0.48000000E+00           0.73752665E+00
   0.49000000E+00           0.66828672E+00
   0.50000000E+00           0.60484826E+00
   0.51000000E+00           0.54557899E+00
   0.52000000E+00           0.49195712E+00
   0.53000000E+00           0.44033793E+00
   0.54000000E+00           0.39357352E+00
   0.55000000E+00           0.35121797E+00
   0.56000000E+00           0.31185755E+00
   0.57000000E+00           0.27585417E+00
   0.58000000E+00           0.24483394E+00
   0.59000000E+00           0.21610981E+00
   0.60000000E+00           0.18979887E+00
   0.61000000E+00           0.16677613E+00
   0.62000000E+00           0.14523212E+00
   0.63000000E+00           0.12670972E+00
   0.64000000E+00           0.11052196E+00
   0.65000000E+00           0.95810764E-01
   0.66000000E+00           0.82746788E-01
   0.67000000E+00           0.71344531E-01
   0.68000000E+00           0.61388715E-01
   0.69000000E+00           0.52708333E-01
   0.70000000E+00           0.45247656E-01
   0.71000000E+00           0.38653646E-01
   0.72000000E+00           0.32918576E-01
   0.73000000E+00           0.27822743E-01
   0.74000000E+00           0.23869097E-01
   0.75000000E+00           0.19876736E-01
   0.76000000E+00           0.16705816E-01
   0.77000000E+00           0.14096007E-01
   0.78000000E+00           0.11950608E-01
   0.79000000E+00           0.99325521E-02
   0.80000000E+00           0.82458333E-02
   0.81000000E+00           0.69834201E-02
   0.82000000E+00           0.57138889E-02
   0.83000000E+00           0.46934028E-02
   0.84000000E+00           0.39190104E-02
   0.85000000E+00           0.32044271E-02
   0.86000000E+00           0.26122396E-02
   0.87000000E+00           0.21973958E-02
   0.88000000E+00           0.17959201E-02
   0.89000000E+00           0.14055556E-02
   0.90000000E+00           0.11585069E-02
   0.91000000E+00           0.92065972E-03
   0.92000000E+00           0.78697917E-03
   0.93000000E+00           0.61944444E-03
   0.94000000E+00           0.48723958E-03
   0.95000000E+00           0.40017361E-03
   0.96000000E+00           0.32803819E-03
   0.97000000E+00           0.25842014E-03
   0.98000000E+00           0.20902778E-03
   0.99000000E+00           0.16388889E-03
   0.10000000E+01           0.12369792E-03
   0.10100000E+01           0.97135417E-04
   0.10200000E+01           0.76128472E-04
   0.10300000E+01           0.55815972E-04
   0.10400000E+01           0.44097222E-04
   0.10500000E+01           0.39496528E-04
   0.10600000E+01           0.29513889E-04
   0.10700000E+01           0.20659722E-04
   0.10800000E+01           0.16753472E-04
   0.10900000E+01           0.14409722E-04
   0.11000000E+01           0.13281250E-04
   0.11100000E+01           0.86805556E-05
   0.11200000E+01           0.65972222E-05
   0.11300000E+01           0.72048611E-05
   0.11400000E+01           0.39930556E-05
   0.11500000E+01           0.27777778E-05
   0.11600000E+01           0.21701389E-05
   0.11700000E+01           0.16493056E-05
   0.11800000E+01           0.95486111E-06
   0.11900000E+01           0.13888889E-05
   0.12000000E+01           0.52083333E-06
   0.12100000E+01           0.34722222E-06
   0.12200000E+01           0.52083333E-06
   0.12300000E+01           0.34722222E-06
   0.12400000E+01           0.86805556E-07
   0.12500000E+01           0.86805556E-07
   0.12600000E+01           0.26041667E-06
   0.12700000E+01           0.00000000E+00
   0.12800000E+01           0.17361111E-06
   0.12900000E+01           0.86805556E-07
   0.13000000E+01           0.00000000E+00
   0.13100000E+01           0.00000000E+00
   0.13200000E+01           0.00000000E+00
   0.13300000E+01           0.00000000E+00
   0.13400000E+01           0.00000000E+00
   0.13500000E+01           0.00000000E+00
   0.13600000E+01           0.00000000E+00
   0.13700000E+01           0.17361111E-06
   0.13800000E+01           0.00000000E+00
   0.13900000E+01           0.00000000E+00
   0.14000000E+01           0.00000000E+00
   0.14100000E+01           0.00000000E+00
   0.14200000E+01           0.00000000E+00
   0.14300000E+01           0.00000000E+00
   0.14400000E+01           0.00000000E+00
   0.14500000E+01           0.00000000E+00
   0.14600000E+01           0.00000000E+00
   0.14700000E+01           0.00000000E+00
   0.14800000E+01           0.00000000E+00
   0.14900000E+01           0.00000000E+00
   0.15000000E+01           0.00000000E+00
   0.15100000E+01           0.00000000E+00
   0.15200000E+01           0.00000000E+00
   0.15300000E+01           0.00000000E+00
   0.15400000E+01           0.00000000E+00
   0.15500000E+01           0.00000000E+00
   0.15600000E+01           0.00000000E+00
   0.15700000E+01           0.00000000E+00
   0.15800000E+01           0.00000000E+00
   0.15900000E+01           0.00000000E+00
   0.16000000E+01           0.00000000E+00
   0.16100000E+01           0.00000000E+00
   0.16200000E+01           0.00000000E+00
   0.16300000E+01           0.00000000E+00
   0.16400000E+01           0.00000000E+00
   0.16500000E+01           0.00000000E+00
   0.16600000E+01           0.00000000E+00
   0.16700000E+01           0.00000000E+00
   0.16800000E+01           0.86805556E-07
   0.16900000E+01           0.00000000E+00
   0.17000000E+01           0.00000000E+00
   0.17100000E+01           0.00000000E+00
   0.17200000E+01           0.00000000E+00
   0.17300000E+01           0.00000000E+00
   0.17400000E+01           0.00000000E+00
   0.17500000E+01           0.00000000E+00
   0.17600000E+01           0.00000000E+00
   0.17700000E+01           0.00000000E+00
   0.17800000E+01           0.00000000E+00
   0.17900000E+01           0.00000000E+00
   0.18000000E+01           0.00000000E+00
   0.18100000E+01           0.00000000E+00
   0.18200000E+01           0.00000000E+00
   0.18300000E+01           0.00000000E+00
   0.18400000E+01           0.00000000E+00
   0.18500000E+01           0.00000000E+00
   0.18600000E+01           0.00000000E+00
   0.18700000E+01           0.00000000E+00
   0.18800000E+01           0.00000000E+00
   0.18900000E+01           0.00000000E+00
   0.19000000E+01           0.00000000E+00
   0.19100000E+01           0.00000000E+00
   0.19200000E+01           0.00000000E+00
   0.19300000E+01           0.00000000E+00
   0.19400000E+01           0.00000000E+00
   0.19500000E+01           0.00000000E+00
   0.19600000E+01           0.00000000E+00
   0.19700000E+01           0.00000000E+00
   0.19800000E+01           0.00000000E+00
   0.19900000E+01           0.00000000E+00
   0.20000000E+01           0.00000000E+00
   0.20100000E+01           0.00000000E+00
   0.20200000E+01           0.00000000E+00
   0.20300000E+01           0.00000000E+00
   0.20400000E+01           0.00000000E+00
   0.20500000E+01           0.00000000E+00
   0.20600000E+01           0.00000000E+00
   0.20700000E+01           0.00000000E+00
   0.20800000E+01           0.00000000E+00
   0.20900000E+01           0.00000000E+00
   0.21000000E+01           0.00000000E+00
   0.21100000E+01           0.00000000E+00
   0.21200000E+01           0.00000000E+00
   0.21300000E+01           0.00000000E+00
   0.21400000E+01           0.00000000E+00
   0.21500000E+01           0.00000000E+00
   0.21600000E+01           0.00000000E+00
   0.21700000E+01           0.00000000E+00
   0.21800000E+01           0.00000000E+00
   0.21900000E+01           0.00000000E+00
   0.22000000E+01           0.00000000E+00
   0.22100000E+01           0.00000000E+00
   0.22200000E+01           0.00000000E+00
   0.22300000E+01           0.00000000E+00
   0.22400000E+01           0.00000000E+00
   0.22500000E+01           0.00000000E+00
   0.22600000E+01           0.00000000E+00
   0.22700000E+01           0.00000000E+00
   0.22800000E+01           0.00000000E+00
   0.22900000E+01           0.00000000E+00
   0.23000000E+01           0.00000000E+00
   0.23100000E+01           0.00000000E+00
   0.23200000E+01           0.00000000E+00
   0.23300000E+01           0.00000000E+00
   0.23400000E+01           0.00000000E+00
   0.23500000E+01           0.00000000E+00
   0.23600000E+01           0.00000000E+00
   0.23700000E+01           0.00000000E+00
   0.23800000E+01           0.00000000E+00
   0.23900000E+01           0.00000000E+00
   0.24000000E+01           0.00000000E+00
   0.24100000E+01           0.00000000E+00
   0.24200000E+01           0.00000000E+00
   0.24300000E+01           0.00000000E+00
   0.24400000E+01           0.00000000E+00
   0.24500000E+01           0.00000000E+00
   0.24600000E+01           0.00000000E+00
   0.24700000E+01           0.00000000E+00
   0.24800000E+01           0.00000000E+00
   0.24900000E+01           0.00000000E+00
   0.25000000E+01           0.00000000E+00
   0.25100000E+01           0.00000000E+00
   0.25200000E+01           0.00000000E+00
   0.25300000E+01           0.00000000E+00
   0.25400000E+01           0.00000000E+00
   0.25500000E+01           0.00000000E+00
   0.25600000E+01           0.00000000E+00
   0.25700000E+01           0.00000000E+00
   0.25800000E+01           0.00000000E+00
   0.25900000E+01           0.00000000E+00
   0.26000000E+01           0.00000000E+00
   0.26100000E+01           0.00000000E+00
   0.26200000E+01           0.00000000E+00
   0.26300000E+01           0.00000000E+00
   0.26400000E+01           0.00000000E+00
   0.26500000E+01           0.00000000E+00
   0.26600000E+01           0.00000000E+00
   0.26700000E+01           0.00000000E+00
   0.26800000E+01           0.00000000E+00
   0.26900000E+01           0.00000000E+00
   0.27000000E+01           0.00000000E+00
   0.27100000E+01           0.00000000E+00
   0.27200000E+01           0.00000000E+00
   0.27300000E+01           0.00000000E+00
   0.27400000E+01           0.00000000E+00
   0.27500000E+01           0.00000000E+00
   0.27600000E+01           0.00000000E+00
   0.27700000E+01           0.00000000E+00
   0.27800000E+01           0.00000000E+00
   0.27900000E+01           0.00000000E+00
   0.28000000E+01           0.00000000E+00
   0.28100000E+01           0.00000000E+00
   0.28200000E+01           0.00000000E+00
   0.28300000E+01           0.00000000E+00
   0.28400000E+01           0.00000000E+00
   0.28500000E+01           0.00000000E+00
   0.28600000E+01           0.00000000E+00
   0.28700000E+01           0.00000000E+00
   0.28800000E+01           0.00000000E+00
   0.28900000E+01           0.00000000E+00
   0.29000000E+01           0.00000000E+00
   0.29100000E+01           0.00000000E+00
   0.29200000E+01           0.00000000E+00
   0.29300000E+01           0.00000000E+00
   0.29400000E+01           0.00000000E+00
   0.29500000E+01           0.00000000E+00
   0.29600000E+01           0.00000000E+00
   0.29700000E+01           0.00000000E+00
   0.29800000E+01           0.00000000E+00
   0.29900000E+01           0.00000000E+00
   0.30000000E+01           0.00000000E+00
   0.30100000E+01           0.00000000E+00
   0.30200000E+01           0.00000000E+00
   0.30300000E+01           0.00000000E+00
   0.30400000E+01           0.00000000E+00
   0.30500000E+01           0.00000000E+00
   0.30600000E+01           0.00000000E+00
   0.30700000E+01           0.00000000E+00
   0.30800000E+01           0.00000000E+00
   0.30900000E+01           0.00000000E+00
   0.31000000E+01           0.00000000E+00
   0.31100000E+01           0.00000000E+00
   0.31200000E+01           0.00000000E+00
   0.31300000E+01           0.00000000E+00
   0.31400000E+01           0.00000000E+00
   0.31500000E+01           0.00000000E+00
   0.31600000E+01           0.00000000E+00
   0.31700000E+01           0.00000000E+00
   0.31800000E+01           0.00000000E+00
   0.31900000E+01           0.00000000E+00
   0.32000000E+01           0.00000000E+00
   0.32100000E+01           0.00000000E+00
   0.32200000E+01           0.00000000E+00
   0.32300000E+01           0.00000000E+00
   0.32400000E+01           0.00000000E+00
   0.32500000E+01           0.00000000E+00
   0.32600000E+01           0.00000000E+00
   0.32700000E+01           0.00000000E+00
   0.32800000E+01           0.00000000E+00
   0.32900000E+01           0.00000000E+00
   0.33000000E+01           0.00000000E+00
   0.33100000E+01           0.00000000E+00
   0.33200000E+01           0.00000000E+00
   0.33300000E+01           0.00000000E+00
   0.33400000E+01           0.00000000E+00
   0.33500000E+01           0.00000000E+00
   0.33600000E+01           0.00000000E+00
   0.33700000E+01           0.00000000E+00
   0.33800000E+01           0.00000000E+00
   0.33900000E+01           0.00000000E+00
   0.34000000E+01           0.00000000E+00
   0.34100000E+01           0.00000000E+00
   0.34200000E+01           0.00000000E+00
   0.34300000E+01           0.00000000E+00
   0.34400000E+01           0.00000000E+00
   0.34500000E+01           0.00000000E+00
   0.34600000E+01           0.00000000E+00
   0.34700000E+01           0.00000000E+00
   0.34800000E+01           0.00000000E+00
   0.34900000E+01           0.00000000E+00
   0.35000000E+01           0.00000000E+00
   0.35100000E+01           0.00000000E+00
   0.35200000E+01           0.00000000E+00
   0.35300000E+01           0.00000000E+00
   0.35400000E+01           0.00000000E+00
   0.35500000E+01           0.00000000E+00
   0.35600000E+01           0.00000000E+00
   0.35700000E+01           0.00000000E+00
   0.35800000E+01           0.00000000E+00
   0.35900000E+01           0.00000000E+00
   0.36000000E+01           0.00000000E+00
   0.36100000E+01           0.00000000E+00
   0.36200000E+01           0.00000000E+00
   0.36300000E+01           0.00000000E+00
   0.36400000E+01           0.00000000E+00
   0.36500000E+01           0.00000000E+00
   0.36600000E+01           0.00000000E+00
   0.36700000E+01           0.00000000E+00
   0.36800000E+01           0.00000000E+00
   0.36900000E+01           0.00000000E+00
   0.37000000E+01           0.00000000E+00
   0.37100000E+01           0.00000000E+00
   0.37200000E+01           0.00000000E+00
   0.37300000E+01           0.00000000E+00
   0.37400000E+01           0.00000000E+00
   0.37500000E+01           0.00000000E+00
   0.37600000E+01           0.00000000E+00
   0.37700000E+01           0.00000000E+00
   0.37800000E+01           0.00000000E+00
   0.37900000E+01           0.00000000E+00
   0.38000000E+01           0.00000000E+00
   0.38100000E+01           0.00000000E+00
   0.38200000E+01           0.00000000E+00
   0.38300000E+01           0.00000000E+00
   0.38400000E+01           0.00000000E+00
   0.38500000E+01           0.00000000E+00
   0.38600000E+01           0.00000000E+00
   0.38700000E+01           0.00000000E+00
   0.38800000E+01           0.00000000E+00
   0.38900000E+01           0.00000000E+00
   0.39000000E+01           0.00000000E+00
   0.39100000E+01           0.00000000E+00
   0.39200000E+01           0.00000000E+00
   0.39300000E+01           0.00000000E+00
   0.39400000E+01           0.00000000E+00
   0.39500000E+01           0.00000000E+00
   0.39600000E+01           0.00000000E+00
   0.39700000E+01           0.00000000E+00
   0.39800000E+01           0.00000000E+00
   0.39900000E+01           0.00000000E+00
   0.40000000E+01           0.00000000E+00
 #T=     5.0476
  -0.40000000E+01           0.00000000E+00
  -0.39900000E+01           0.00000000E+00
  -0.39800000E+01           0.00000000E+00
  -0.39700000E+01           0.00000000E+00
  -0.39600000E+01           0.00000000E+00
  -0.39500000E+01           0.00000000E+00
  -0.39400000E+01           0.00000000E+00
  -0.39300000E+01           0.00000000E+00
  -0.39200000E+01           0.00000000E+00
  -0.39100000E+01           0.00000000E+00
  -0.39000000E+01           0.00000000E+00
  -0.38900000E+01           0.00000000E+00
  -0.38800000E+01           0.00000000E+00
  -0.38700000E+01           0.00000000E+00
  -0.38600000E+01           0.00000000E+00
  -0.38500000E+01           0.00000000E+00
  -0.38400000E+01           0.00000000E+00
  -0.38300000E+01           0.00000000E+00
  -0.38200000E+01           0.00000000E+00
  -0.38100000E+01           0.00000000E+00
  -0.38000000E+01           0.00000000E+00
  -0.37900000E+01           0.00000000E+00
  -0.37800000E+01           0.00000000E+00
  -0.37700000E+01           0.00000000E+00
  -0.37600000E+01           0.00000000E+00
  -0.37500000E+01           0.00000000E+00
  -0.37400000E+01           0.00000000E+00
  -0.37300000E+01           0.00000000E+00
  -0.37200000E+01           0.00000000E+00
  -0.37100000E+01           0.00000000E+00
  -0.37000000E+01           0.00000000E+00
  -0.36900000E+01           0.00000000E+00
  -0.36800000E+01           0.00000000E+00
  -0.36700000E+01           0.00000000E+00
  -0.36600000E+01           0.00000000E+00
  -0.36500000E+01           0.00000000E+00
  -0.36400000E+01           0.00000000E+00
  -0.36300000E+01           0.00000000E+00
  -0.36200000E+01           0.00000000E+00
  -0.36100000E+01           0.00000000E+00
  -0.36000000E+01           0.00000000E+00
  -0.35900000E+01           0.00000000E+00
  -0.35800000E+01           0.00000000E+00
  -0.35700000E+01           0.00000000E+00
  -0.35600000E+01           0.00000000E+00
  -0.35500000E+01           0.00000000E+00
  -0.35400000E+01           0.00000000E+00
  -0.35300000E+01           0.00000000E+00
  -0.35200000E+01           0.00000000E+00
  -0.35100000E+01           0.00000000E+00
  -0.35000000E+01           0.00000000E+00
  -0.34900000E+01           0.00000000E+00
  -0.34800000E+01           0.00000000E+00
  -0.34700000E+01           0.00000000E+00
  -0.34600000E+01           0.00000000E+00
  -0.34500000E+01           0.00000000E+00
  -0.34400000E+01           0.00000000E+00
  -0.34300000E+01           0.00000000E+00
  -0.34200000E+01           0.00000000E+00
  -0.34100000E+01           0.00000000E+00
  -0.34000000E+01           0.00000000E+00
  -0.33900000E+01           0.00000000E+00
  -0.33800000E+01           0.00000000E+00
  -0.33700000E+01           0.00000000E+00
  -0.33600000E+01           0.00000000E+00
  -0.33500000E+01           0.00000000E+00
  -0.33400000E+01           0.00000000E+00
  -0.33300000E+01           0.00000000E+00
  -0.33200000E+01           0.00000000E+00
  -0.33100000E+01           0.00000000E+00
  -0.33000000E+01           0.00000000E+00
  -0.32900000E+01           0.00000000E+00
  -0.32800000E+01           0.00000000E+00
  -0.32700000E+01           0.00000000E+00
  -0.32600000E+01           0.00000000E+00
  -0.32500000E+01           0.00000000E+00
  -0.32400000E+01           0.00000000E+00
  -0.32300000E+01           0.00000000E+00
  -0.32200000E+01           0.00000000E+00
  -0.32100000E+01           0.00000000E+00
  -0.32000000E+01           0.00000000E+00
  -0.31900000E+01           0.00000000E+00
  -0.31800000E+01           0.00000000E+00
  -0.31700000E+01           0.00000000E+00
  -0.31600000E+01           0.00000000E+00
  -0.31500000E+01           0.00000000E+00
  -0.31400000E+01           0.00000000E+00
  -0.31300000E+01           0.00000000E+00
  -0.31200000E+01           0.00000000E+00
  -0.31100000E+01           0.00000000E+00
  -0.31000000E+01           0.00000000E+00
  -0.30900000E+01           0.00000000E+00
  -0.30800000E+01           0.00000000E+00
  -0.30700000E+01           0.00000000E+00
  -0.30600000E+01           0.00000000E+00
  -0.30500000E+01           0.00000000E+00
  -0.30400000E+01           0.00000000E+00
  -0.30300000E+01           0.00000000E+00
  -0.30200000E+01           0.00000000E+00
  -0.30100000E+01           0.00000000E+00
  -0.30000000E+01           0.00000000E+00
  -0.29900000E+01           0.00000000E+00
  -0.29800000E+01           0.00000000E+00
  -0.29700000E+01           0.00000000E+00
  -0.29600000E+01           0.00000000E+00
  -0.29500000E+01           0.00000000E+00
  -0.29400000E+01           0.00000000E+00
  -0.29300000E+01           0.00000000E+00
  -0.29200000E+01           0.00000000E+00
  -0.29100000E+01           0.00000000E+00
  -0.29000000E+01           0.00000000E+00
  -0.28900000E+01           0.00000000E+00
  -0.28800000E+01           0.00000000E+00
  -0.28700000E+01           0.00000000E+00
  -0.28600000E+01           0.00000000E+00
  -0.28500000E+01           0.00000000E+00
  -0.28400000E+01           0.00000000E+00
  -0.28300000E+01           0.00000000E+00
  -0.28200000E+01           0.00000000E+00
  -0.28100000E+01           0.00000000E+00
  -0.28000000E+01           0.00000000E+00
  -0.27900000E+01           0.00000000E+00
  -0.27800000E+01           0.00000000E+00
  -0.27700000E+01           0.00000000E+00
  -0.27600000E+01           0.00000000E+00
  -0.27500000E+01           0.00000000E+00
  -0.27400000E+01           0.00000000E+00
  -0.27300000E+01           0.00000000E+00
  -0.27200000E+01           0.00000000E+00
  -0.27100000E+01           0.00000000E+00
  -0.27000000E+01           0.00000000E+00
  -0.26900000E+01           0.00000000E+00
  -0.26800000E+01           0.00000000E+00
  -0.26700000E+01           0.00000000E+00
  -0.26600000E+01           0.00000000E+00
  -0.26500000E+01           0.00000000E+00
  -0.26400000E+01           0.00000000E+00
  -0.26300000E+01           0.00000000E+00
  -0.26200000E+01           0.00000000E+00
  -0.26100000E+01           0.00000000E+00
  -0.26000000E+01           0.00000000E+00
  -0.25900000E+01           0.00000000E+00
  -0.25800000E+01           0.00000000E+00
  -0.25700000E+01           0.00000000E+00
  -0.25600000E+01           0.00000000E+00
  -0.25500000E+01           0.00000000E+00
  -0.25400000E+01           0.00000000E+00
  -0.25300000E+01           0.00000000E+00
  -0.25200000E+01           0.00000000E+00
  -0.25100000E+01           0.00000000E+00
  -0.25000000E+01           0.00000000E+00
  -0.24900000E+01           0.00000000E+00
  -0.24800000E+01           0.00000000E+00
  -0.24700000E+01           0.00000000E+00
  -0.24600000E+01           0.00000000E+00
  -0.24500000E+01           0.00000000E+00
  -0.24400000E+01           0.00000000E+00
  -0.24300000E+01           0.00000000E+00
  -0.24200000E+01           0.00000000E+00
  -0.24100000E+01           0.00000000E+00
  -0.24000000E+01           0.00000000E+00
  -0.23900000E+01           0.00000000E+00
  -0.23800000E+01           0.00000000E+00
  -0.23700000E+01           0.00000000E+00
  -0.23600000E+01           0.00000000E+00
  -0.23500000E+01           0.00000000E+00
  -0.23400000E+01           0.00000000E+00
  -0.23300000E+01           0.00000000E+00
  -0.23200000E+01           0.00000000E+00
  -0.23100000E+01           0.00000000E+00
  -0.23000000E+01           0.00000000E+00
  -0.22900000E+01           0.00000000E+00
  -0.22800000E+01           0.00000000E+00
  -0.22700000E+01           0.00000000E+00
  -0.22600000E+01           0.00000000E+00
  -0.22500000E+01           0.00000000E+00
  -0.22400000E+01           0.00000000E+00
  -0.22300000E+01           0.00000000E+00
  -0.22200000E+01           0.00000000E+00
  -0.22100000E+01           0.00000000E+00
  -0.22000000E+01           0.00000000E+00
  -0.21900000E+01           0.00000000E+00
  -0.21800000E+01           0.00000000E+00
  -0.21700000E+01           0.00000000E+00
  -0.21600000E+01           0.00000000E+00
  -0.21500000E+01           0.00000000E+00
  -0.21400000E+01           0.00000000E+00
  -0.21300000E+01           0.00000000E+00
  -0.21200000E+01           0.00000000E+00
  -0.21100000E+01           0.00000000E+00
  -0.21000000E+01           0.00000000E+00
  -0.20900000E+01           0.00000000E+00
  -0.20800000E+01           0.00000000E+00
  -0.20700000E+01           0.00000000E+00
  -0.20600000E+01           0.00000000E+00
  -0.20500000E+01           0.00000000E+00
  -0.20400000E+01           0.00000000E+00
  -0.20300000E+01           0.00000000E+00
  -0.20200000E+01           0.00000000E+00
  -0.20100000E+01           0.00000000E+00
  -0.20000000E+01           0.00000000E+00
  -0.19900000E+01           0.00000000E+00
  -0.19800000E+01           0.00000000E+00
  -0.19700000E+01           0.00000000E+00
  -0.19600000E+01           0.00000000E+00
  -0.19500000E+01           0.00000000E+00
  -0.19400000E+01           0.00000000E+00
  -0.19300000E+01           0.00000000E+00
  -0.19200000E+01           0.00000000E+00
  -0.19100000E+01           0.00000000E+00
  -0.19000000E+01           0.00000000E+00
  -0.18900000E+01           0.00000000E+00
  -0.18800000E+01           0.00000000E+00
  -0.18700000E+01           0.00000000E+00
  -0.18600000E+01           0.00000000E+00
  -0.18500000E+01           0.00000000E+00
  -0.18400000E+01           0.00000000E+00
  -0.18300000E+01           0.00000000E+00
  -0.18200000E+01           0.00000000E+00
  -0.18100000E+01           0.00000000E+00
  -0.18000000E+01           0.00000000E+00
  -0.17900000E+01           0.00000000E+00
  -0.17800000E+01           0.00000000E+00
  -0.17700000E+01           0.00000000E+00
  -0.17600000E+01           0.00000000E+00
  -0.17500000E+01           0.00000000E+00
  -0.17400000E+01           0.00000000E+00
  -0.17300000E+01           0.00000000E+00
  -0.17200000E+01           0.00000000E+00
  -0.17100000E+01           0.00000000E+00
  -0.17000000E+01           0.00000000E+00
  -0.16900000E+01           0.00000000E+00
  -0.16800000E+01           0.00000000E+00
  -0.16700000E+01           0.00000000E+00
  -0.16600000E+01           0.00000000E+00
  -0.16500000E+01           0.00000000E+00
  -0.16400000E+01           0.00000000E+00
  -0.16300000E+01           0.00000000E+00
  -0.16200000E+01           0.00000000E+00
  -0.16100000E+01           0.00000000E+00
  -0.16000000E+01           0.00000000E+00
  -0.15900000E+01           0.00000000E+00
  -0.15800000E+01           0.00000000E+00
  -0.15700000E+01           0.00000000E+00
  -0.15600000E+01           0.00000000E+00
  -0.15500000E+01           0.00000000E+00
  -0.15400000E+01           0.00000000E+00
  -0.15300000E+01           0.00000000E+00
  -0.15200000E+01           0.00000000E+00
  -0.15100000E+01           0.00000000E+00
  -0.15000000E+01           0.00000000E+00
  -0.14900000E+01           0.00000000E+00
  -0.14800000E+01           0.00000000E+00
  -0.14700000E+01           0.00000000E+00
  -0.14600000E+01           0.00000000E+00
  -0.14500000E+01           0.00000000E+00
  -0.14400000E+01           0.00000000E+00
  -0.14300000E+01           0.00000000E+00
  -0.14200000E+01           0.00000000E+00
  -0.14100000E+01           0.00000000E+00
  -0.14000000E+01           0.00000000E+00
  -0.13900000E+01           0.00000000E+00
  -0.13800000E+01           0.00000000E+00
  -0.13700000E+01           0.00000000E+00
  -0.13600000E+01           0.00000000E+00
  -0.13500000E+01           0.00000000E+00
  -0.13400000E+01           0.00000000E+00
  -0.13300000E+01           0.00000000E+00
  -0.13200000E+01           0.00000000E+00
  -0.13100000E+01           0.00000000E+00
  -0.13000000E+01           0.00000000E+00
  -0.12900000E+01           0.00000000E+00
  -0.12800000E+01           0.00000000E+00
  -0.12700000E+01           0.00000000E+00
  -0.12600000E+01           0.00000000E+00
  -0.12500000E+01           0.00000000E+00
  -0.12400000E+01           0.00000000E+00
  -0.12300000E+01           0.00000000E+00
  -0.12200000E+01           0.00000000E+00
  -0.12100000E+01           0.00000000E+00
  -0.12000000E+01           0.00000000E+00
  -0.11900000E+01           0.00000000E+00
  -0.11800000E+01           0.00000000E+00
  -0.11700000E+01           0.00000000E+00
  -0.11600000E+01           0.00000000E+00
  -0.11500000E+01           0.00000000E+00
  -0.11400000E+01           0.00000000E+00
  -0.11300000E+01           0.00000000E+00
  -0.11200000E+01           0.00000000E+00
  -0.11100000E+01           0.00000000E+00
  -0.11000000E+01           0.00000000E+00
  -0.10900000E+01           0.00000000E+00
  -0.10800000E+01           0.00000000E+00
  -0.10700000E+01           0.00000000E+00
  -0.10600000E+01           0.00000000E+00
  -0.10500000E+01           0.00000000E+00
  -0.10400000E+01           0.00000000E+00
  -0.10300000E+01           0.00000000E+00
  -0.10200000E+01           0.00000000E+00
  -0.10100000E+01           0.00000000E+00
  -0.10000000E+01           0.00000000E+00
  -0.99000000E+00           0.00000000E+00
  -0.98000000E+00           0.00000000E+00
  -0.97000000E+00           0.00000000E+00
  -0.96000000E+00           0.00000000E+00
  -0.95000000E+00           0.00000000E+00
  -0.94000000E+00           0.00000000E+00
  -0.93000000E+00           0.00000000E+00
  -0.92000000E+00           0.00000000E+00
  -0.91000000E+00           0.00000000E+00
  -0.90000000E+00           0.00000000E+00
  -0.89000000E+00           0.00000000E+00
  -0.88000000E+00           0.00000000E+00
  -0.87000000E+00           0.00000000E+00
  -0.86000000E+00           0.00000000E+00
  -0.85000000E+00           0.00000000E+00
  -0.84000000E+00           0.00000000E+00
  -0.83000000E+00           0.00000000E+00
  -0.82000000E+00           0.00000000E+00
  -0.81000000E+00           0.00000000E+00
  -0.80000000E+00           0.00000000E+00
  -0.79000000E+00           0.00000000E+00
  -0.78000000E+00           0.00000000E+00
  -0.77000000E+00           0.00000000E+00
  -0.76000000E+00           0.00000000E+00
  -0.75000000E+00           0.00000000E+00
  -0.74000000E+00           0.00000000E+00
  -0.73000000E+00           0.00000000E+00
  -0.72000000E+00           0.00000000E+00
  -0.71000000E+00           0.00000000E+00
  -0.70000000E+00           0.00000000E+00
  -0.69000000E+00           0.00000000E+00
  -0.68000000E+00           0.00000000E+00
  -0.67000000E+00           0.00000000E+00
  -0.66000000E+00           0.00000000E+00
  -0.65000000E+00           0.00000000E+00
  -0.64000000E+00           0.00000000E+00
  -0.63000000E+00           0.00000000E+00
  -0.62000000E+00           0.00000000E+00
  -0.61000000E+00           0.00000000E+00
  -0.60000000E+00           0.00000000E+00
  -0.59000000E+00           0.00000000E+00
  -0.58000000E+00           0.00000000E+00
  -0.57000000E+00           0.00000000E+00
  -0.56000000E+00           0.00000000E+00
  -0.55000000E+00           0.00000000E+00
  -0.54000000E+00           0.00000000E+00
  -0.53000000E+00           0.00000000E+00
  -0.52000000E+00           0.00000000E+00
  -0.51000000E+00           0.00000000E+00
  -0.50000000E+00           0.00000000E+00
  -0.49000000E+00           0.00000000E+00
  -0.48000000E+00           0.00000000E+00
  -0.47000000E+00           0.00000000E+00
  -0.46000000E+00           0.00000000E+00
  -0.45000000E+00           0.00000000E+00
  -0.44000000E+00           0.00000000E+00
  -0.43000000E+00           0.00000000E+00
  -0.42000000E+00           0.00000000E+00
  -0.41000000E+00           0.00000000E+00
  -0.40000000E+00           0.00000000E+00
  -0.39000000E+00           0.00000000E+00
  -0.38000000E+00           0.00000000E+00
  -0.37000000E+00           0.00000000E+00
  -0.36000000E+00           0.00000000E+00
  -0.35000000E+00           0.00000000E+00
  -0.34000000E+00           0.00000000E+00
  -0.33000000E+00           0.00000000E+00
  -0.32000000E+00           0.00000000E+00
  -0.31000000E+00           0.00000000E+00
  -0.30000000E+00           0.00000000E+00
  -0.29000000E+00           0.00000000E+00
  -0.28000000E+00           0.00000000E+00
  -0.27000000E+00           0.00000000E+00
  -0.26000000E+00           0.00000000E+00
  -0.25000000E+00           0.00000000E+00
  -0.24000000E+00           0.00000000E+00
  -0.23000000E+00           0.00000000E+00
  -0.22000000E+00           0.00000000E+00
  -0.21000000E+00           0.00000000E+00
  -0.20000000E+00           0.00000000E+00
  -0.19000000E+00           0.00000000E+00
  -0.18000000E+00           0.00000000E+00
  -0.17000000E+00           0.00000000E+00
  -0.16000000E+00           0.00000000E+00
  -0.15000000E+00           0.00000000E+00
  -0.14000000E+00           0.00000000E+00
  -0.13000000E+00           0.00000000E+00
  -0.12000000E+00           0.00000000E+00
  -0.11000000E+00           0.00000000E+00
  -0.10000000E+00           0.00000000E+00
  -0.90000000E-01           0.00000000E+00
  -0.80000000E-01           0.00000000E+00
  -0.70000000E-01           0.00000000E+00
  -0.60000000E-01           0.00000000E+00
  -0.50000000E-01           0.00000000E+00
  -0.40000000E-01           0.00000000E+00
  -0.30000000E-01           0.00000000E+00
  -0.20000000E-01           0.00000000E+00
  -0.10000000E-01           0.00000000E+00
   0.00000000E+00           0.14041667E-02
   0.10000000E-01           0.33723264E-01
   0.20000000E-01           0.11753403E+00
   0.30000000E-01           0.24052439E+00
   0.40000000E-01           0.39254714E+00
   0.50000000E-01           0.56564939E+00
   0.60000000E-01           0.75003854E+00
   0.70000000E-01           0.94063342E+00
   0.80000000E-01           0.11328600E+01
   0.90000000E-01           0.13240354E+01
   0.10000000E+00           0.15074607E+01
   0.11000000E+00           0.16821432E+01
   0.12000000E+00           0.18503342E+01
   0.13000000E+00           0.20059746E+01
   0.14000000E+00           0.21454597E+01
   0.15000000E+00           0.22735285E+01
   0.16000000E+00           0.23891878E+01
   0.17000000E+00           0.24888222E+01
   0.18000000E+00           0.25727135E+01
   0.19000000E+00           0.26444490E+01
   0.20000000E+00           0.26994659E+01
   0.21000000E+00           0.27431530E+01
   0.22000000E+00           0.27687338E+01
   0.23000000E+00           0.27855589E+01
   0.24000000E+00           0.27847263E+01
   0.25000000E+00           0.27784553E+01
   0.26000000E+00           0.27570515E+01
   0.27000000E+00           0.27254431E+01
   0.28000000E+00           0.26818743E+01
   0.29000000E+00           0.26346908E+01
   0.30000000E+00           0.25751071E+01
   0.31000000E+00           0.25112453E+01
   0.32000000E+00           0.24394388E+01
   0.33000000E+00           0.23639561E+01
   0.34000000E+00           0.22835812E+01
   0.35000000E+00           0.22006207E+01
   0.36000000E+00           0.21131740E+01
   0.37000000E+00           0.20209428E+01
   0.38000000E+00           0.19321821E+01
   0.39000000E+00           0.18392217E+01
   0.40000000E+00           0.17458293E+01
   0.41000000E+00           0.16565074E+01
   0.42000000E+00           0.15629175E+01
   0.43000000E+00           0.14731068E+01
   0.44000000E+00           0.13858623E+01
   0.45000000E+00           0.13002602E+01
   0.46000000E+00           0.12151495E+01
   0.47000000E+00           0.11343297E+01
   0.48000000E+00           0.10558080E+01
   0.49000000E+00           0.98026875E+00
   0.50000000E+00           0.90900729E+00
   0.51000000E+00           0.84058281E+00
   0.52000000E+00           0.77440208E+00
   0.53000000E+00           0.71229549E+00
   0.54000000E+00           0.65401224E+00
   0.55000000E+00           0.59939705E+00
   0.56000000E+00           0.54788906E+00
   0.57000000E+00           0.49882943E+00
   0.58000000E+00           0.45386450E+00
   0.59000000E+00           0.41223681E+00
   0.60000000E+00           0.37365972E+00
   0.61000000E+00           0.33710738E+00
   0.62000000E+00           0.30436901E+00
   0.63000000E+00           0.27338333E+00
   0.64000000E+00           0.24583030E+00
   0.65000000E+00           0.22048238E+00
   0.66000000E+00           0.19709696E+00
   0.67000000E+00           0.17570799E+00
   0.68000000E+00           0.15642700E+00
   0.69000000E+00           0.13900000E+00
   0.70000000E+00           0.12305095E+00
   0.71000000E+00           0.10837595E+00
   0.72000000E+00           0.96119010E-01
   0.73000000E+00           0.84508854E-01
   0.74000000E+00           0.74010677E-01
   0.75000000E+00           0.65178559E-01
   0.76000000E+00           0.56952431E-01
   0.77000000E+00           0.49728299E-01
   0.78000000E+00           0.43305035E-01
   0.79000000E+00           0.37576476E-01
   0.80000000E+00           0.32551649E-01
   0.81000000E+00           0.28392187E-01
   0.82000000E+00           0.24687326E-01
   0.83000000E+00           0.21250608E-01
   0.84000000E+00           0.18176476E-01
   0.85000000E+00           0.15500868E-01
   0.86000000E+00           0.13339236E-01
   0.87000000E+00           0.11597743E-01
   0.88000000E+00           0.98336806E-02
   0.89000000E+00           0.84083333E-02
   0.90000000E+00           0.70859375E-02
   0.91000000E+00           0.60669271E-02
   0.92000000E+00           0.50604167E-02
   0.93000000E+00           0.42700521E-02
   0.94000000E+00           0.36080729E-02
   0.95000000E+00           0.30654514E-02
   0.96000000E+00           0.25736979E-02
   0.97000000E+00           0.21453125E-02
   0.98000000E+00           0.17978299E-02
   0.99000000E+00           0.15267361E-02
   0.10000000E+01           0.12406250E-02
   0.10100000E+01           0.10320312E-02
   0.10200000E+01           0.84045139E-03
   0.10300000E+01           0.68871528E-03
   0.10400000E+01           0.60104167E-03
   0.10500000E+01           0.47500000E-03
   0.10600000E+01           0.39592014E-03
   0.10700000E+01           0.32508681E-03
   0.10800000E+01           0.25694444E-03
   0.10900000E+01           0.21675347E-03
   0.11000000E+01           0.17074653E-03
   0.11100000E+01           0.14427083E-03
   0.11200000E+01           0.11675347E-03
   0.11300000E+01           0.96354167E-04
   0.11400000E+01           0.76909722E-04
   0.11500000E+01           0.61458333E-04
   0.11600000E+01           0.51475694E-04
   0.11700000E+01           0.37326389E-04
   0.11800000E+01           0.35069444E-04
   0.11900000E+01           0.25694444E-04
   0.12000000E+01           0.18055556E-04
   0.12100000E+01           0.17447917E-04
   0.12200000E+01           0.14149306E-04
   0.12300000E+01           0.11371528E-04
   0.12400000E+01           0.10069444E-04
   0.12500000E+01           0.64236111E-05
   0.12600000E+01           0.35590278E-05
   0.12700000E+01           0.55555556E-05
   0.12800000E+01           0.30381944E-05
   0.12900000E+01           0.15625000E-05
   0.13000000E+01           0.20833333E-05
   0.13100000E+01           0.17361111E-05
   0.13200000E+01           0.16493056E-05
   0.13300000E+01           0.34722222E-06
   0.13400000E+01           0.12152778E-05
   0.13500000E+01           0.78125000E-06
   0.13600000E+01           0.43402778E-06
   0.13700000E+01           0.43402778E-06
   0.13800000E+01           0.26041667E-06
   0.13900000E+01           0.26041667E-06
   0.14000000E+01           0.00000000E+00
   0.14100000E+01           0.00000000E+00
   0.14200000E+01           0.00000000E+00
   0.14300000E+01           0.00000000E+00
   0.14400000E+01           0.00000000E+00
   0.14500000E+01           0.86805556E-07
   0.14600000E+01           0.00000000E+00
   0.14700000E+01           0.86805556E-07
   0.14800000E+01           0.00000000E+00
   0.14900000E+01           0.00000000E+00
   0.15000000E+01           0.00000000E+00
   0.15100000E+01           0.00000000E+00
   0.15200000E+01           0.00000000E+00
   0.15300000E+01           0.00000000E+00
   0.15400000E+01           0.00000000E+00
   0.15500000E+01           0.00000000E+00
   0.15600000E+01           0.00000000E+00
   0.15700000E+01           0.00000000E+00
   0.15800000E+01           0.00000000E+00
   0.15900000E+01           0.00000000E+00
   0.16000000E+01           0.00000000E+00
   0.16100000E+01           0.00000000E+00
   0.16200000E+01           0.00000000E+00
   0.16300000E+01           0.00000000E+00
   0.16400000E+01           0.00000000E+00
   0.16500000E+01           0.00000000E+00
   0.16600000E+01           0.00000000E+00
   0.16700000E+01           0.00000000E+00
   0.16800000E+01           0.00000000E+00
   0.16900000E+01           0.00000000E+00
   0.17000000E+01           0.00000000E+00
   0.17100000E+01           0.00000000E+00
   0.17200000E+01           0.00000000E+00
   0.17300000E+01           0.00000000E+00
   0.17400000E+01           0.00000000E+00
   0.17500000E+01           0.00000000E+00
   0.17600000E+01           0.00000000E+00
   0.17700000E+01           0.00000000E+00
   0.17800000E+01           0.00000000E+00
   0.17900000E+01           0.00000000E+00
   0.18000000E+01           0.00000000E+00
   0.18100000E+01           0.00000000E+00
   0.18200000E+01           0.00000000E+00
   0.18300000E+01           0.00000000E+00
   0.18400000E+01           0.00000000E+00
   0.18500000E+01           0.00000000E+00
   0.18600000E+01           0.00000000E+00
   0.18700000E+01           0.00000000E+00
   0.18800000E+01           0.00000000E+00
   0.18900000E+01           0.00000000E+00
   0.19000000E+01           0.00000000E+00
   0.19100000E+01           0.00000000E+00
   0.19200000E+01           0.00000000E+00
   0.19300000E+01           0.00000000E+00
   0.19400000E+01           0.00000000E+00
   0.19500000E+01           0.00000000E+00
   0.19600000E+01           0.00000000E+00
   0.19700000E+01           0.00000000E+00
   0.19800000E+01           0.00000000E+00
   0.19900000E+01           0.00000000E+00
   0.20000000E+01           0.00000000E+00
   0.20100000E+01           0.00000000E+00
   0.20200000E+01           0.00000000E+00
   0.20300000E+01           0.00000000E+00
   0.20400000E+01           0.00000000E+00
   0.20500000E+01           0.00000000E+00
   0.20600000E+01           0.00000000E+00
   0.20700000E+01           0.00000000E+00
   0.20800000E+01           0.00000000E+00
   0.20900000E+01           0.00000000E+00
   0.21000000E+01           0.00000000E+00
   0.21100000E+01           0.00000000E+00
   0.21200000E+01           0.00000000E+00
   0.21300000E+01           0.00000000E+00
   0.21400000E+01           0.00000000E+00
   0.21500000E+01           0.00000000E+00
   0.21600000E+01           0.00000000E+00
   0.21700000E+01           0.00000000E+00
   0.21800000E+01           0.00000000E+00
   0.21900000E+01           0.00000000E+00
   0.22000000E+01           0.00000000E+00
   0.22100000E+01           0.00000000E+00
   0.22200000E+01           0.00000000E+00
   0.22300000E+01           0.00000000E+00
   0.22400000E+01           0.00000000E+00
   0.22500000E+01           0.00000000E+00
   0.22600000E+01           0.00000000E+00
   0.22700000E+01           0.00000000E+00
   0.22800000E+01           0.00000000E+00
   0.22900000E+01           0.00000000E+00
   0.23000000E+01           0.00000000E+00
   0.23100000E+01           0.00000000E+00
   0.23200000E+01           0.00000000E+00
   0.23300000E+01           0.00000000E+00
   0.23400000E+01           0.00000000E+00
   0.23500000E+01           0.00000000E+00
   0.23600000E+01           0.00000000E+00
   0.23700000E+01           0.00000000E+00
   0.23800000E+01           0.00000000E+00
   0.23900000E+01           0.00000000E+00
   0.24000000E+01           0.00000000E+00
   0.24100000E+01           0.00000000E+00
   0.24200000E+01           0.00000000E+00
   0.24300000E+01           0.00000000E+00
   0.24400000E+01           0.00000000E+00
   0.24500000E+01           0.00000000E+00
   0.24600000E+01           0.00000000E+00
   0.24700000E+01           0.00000000E+00
   0.24800000E+01           0.00000000E+00
   0.24900000E+01           0.00000000E+00
   0.25000000E+01           0.00000000E+00
   0.25100000E+01           0.00000000E+00
   0.25200000E+01           0.00000000E+00
   0.25300000E+01           0.00000000E+00
   0.25400000E+01           0.00000000E+00
   0.25500000E+01           0.00000000E+00
   0.25600000E+01           0.00000000E+00
   0.25700000E+01           0.00000000E+00
   0.25800000E+01           0.00000000E+00
   0.25900000E+01           0.00000000E+00
   0.26000000E+01           0.00000000E+00
   0.26100000E+01           0.00000000E+00
   0.26200000E+01           0.00000000E+00
   0.26300000E+01           0.00000000E+00
   0.26400000E+01           0.00000000E+00
   0.26500000E+01           0.00000000E+00
   0.26600000E+01           0.00000000E+00
   0.26700000E+01           0.00000000E+00
   0.26800000E+01           0.00000000E+00
   0.26900000E+01           0.00000000E+00
   0.27000000E+01           0.00000000E+00
   0.27100000E+01           0.00000000E+00
   0.27200000E+01           0.00000000E+00
   0.27300000E+01           0.00000000E+00
   0.27400000E+01           0.00000000E+00
   0.27500000E+01           0.00000000E+00
   0.27600000E+01           0.00000000E+00
   0.27700000E+01           0.00000000E+00
   0.27800000E+01           0.00000000E+00
   0.27900000E+01           0.00000000E+00
   0.28000000E+01           0.00000000E+00
   0.28100000E+01           0.00000000E+00
   0.28200000E+01           0.00000000E+00
   0.28300000E+01           0.00000000E+00
   0.28400000E+01           0.00000000E+00
   0.28500000E+01           0.00000000E+00
   0.28600000E+01           0.00000000E+00
   0.28700000E+01           0.00000000E+00
   0.28800000E+01           0.00000000E+00
   0.28900000E+01           0.00000000E+00
   0.29000000E+01           0.00000000E+00
   0.29100000E+01           0.00000000E+00
   0.29200000E+01           0.00000000E+00
   0.29300000E+01           0.00000000E+00
   0.29400000E+01           0.00000000E+00
   0.29500000E+01           0.00000000E+00
   0.29600000E+01           0.00000000E+00
   0.29700000E+01           0.00000000E+00
   0.29800000E+01           0.00000000E+00
   0.29900000E+01           0.00000000E+00
   0.30000000E+01           0.00000000E+00
   0.30100000E+01           0.00000000E+00
   0.30200000E+01           0.00000000E+00
   0.30300000E+01           0.00000000E+00
   0.30400000E+01           0.00000000E+00
   0.30500000E+01           0.00000000E+00
   0.30600000E+01           0.00000000E+00
   0.30700000E+01           0.00000000E+00
   0.30800000E+01           0.00000000E+00
   0.30900000E+01           0.00000000E+00
   0.31000000E+01           0.00000000E+00
   0.31100000E+01           0.00000000E+00
   0.31200000E+01           0.00000000E+00
   0.31300000E+01           0.00000000E+00
   0.31400000E+01           0.00000000E+00
   0.31500000E+01           0.00000000E+00
   0.31600000E+01           0.00000000E+00
   0.31700000E+01           0.00000000E+00
   0.31800000E+01           0.00000000E+00
   0.31900000E+01           0.00000000E+00
   0.32000000E+01           0.00000000E+00
   0.32100000E+01           0.00000000E+00
   0.32200000E+01           0.00000000E+00
   0.32300000E+01           0.00000000E+00
   0.32400000E+01           0.00000000E+00
   0.32500000E+01           0.00000000E+00
   0.32600000E+01           0.00000000E+00
   0.32700000E+01           0.00000000E+00
   0.32800000E+01           0.00000000E+00
   0.32900000E+01           0.00000000E+00
   0.33000000E+01           0.00000000E+00
   0.33100000E+01           0.00000000E+00
   0.33200000E+01           0.00000000E+00
   0.33300000E+01           0.00000000E+00
   0.33400000E+01           0.00000000E+00
   0.33500000E+01           0.00000000E+00
   0.33600000E+01           0.00000000E+00
   0.33700000E+01           0.00000000E+00
   0.33800000E+01           0.00000000E+00
   0.33900000E+01           0.00000000E+00
   0.34000000E+01           0.00000000E+00
   0.34100000E+01           0.00000000E+00
   0.34200000E+01           0.00000000E+00
   0.34300000E+01           0.00000000E+00
   0.34400000E+01           0.00000000E+00
   0.34500000E+01           0.00000000E+00
   0.34600000E+01           0.00000000E+00
   0.34700000E+01           0.00000000E+00
   0.34800000E+01           0.00000000E+00
   0.34900000E+01           0.00000000E+00
   0.35000000E+01           0.00000000E+00
   0.35100000E+01           0.00000000E+00
   0.35200000E+01           0.00000000E+00
   0.35300000E+01           0.00000000E+00
   0.35400000E+01           0.00000000E+00
   0.35500000E+01           0.00000000E+00
   0.35600000E+01           0.00000000E+00
   0.35700000E+01           0.00000000E+00
   0.35800000E+01           0.00000000E+00
   0.35900000E+01           0.00000000E+00
   0.36000000E+01           0.00000000E+00
   0.36100000E+01           0.00000000E+00
   0.36200000E+01           0.00000000E+00
   0.36300000E+01           0.00000000E+00
   0.36400000E+01           0.00000000E+00
   0.36500000E+01           0.00000000E+00
   0.36600000E+01           0.00000000E+00
   0.36700000E+01           0.00000000E+00
   0.36800000E+01           0.00000000E+00
   0.36900000E+01           0.00000000E+00
   0.37000000E+01           0.00000000E+00
   0.37100000E+01           0.00000000E+00
   0.37200000E+01           0.00000000E+00
   0.37300000E+01           0.00000000E+00
   0.37400000E+01           0.00000000E+00
   0.37500000E+01           0.00000000E+00
   0.37600000E+01           0.00000000E+00
   0.37700000E+01           0.00000000E+00
   0.37800000E+01           0.00000000E+00
   0.37900000E+01           0.00000000E+00
   0.38000000E+01           0.00000000E+00
   0.38100000E+01           0.00000000E+00
   0.38200000E+01           0.00000000E+00
   0.38300000E+01           0.00000000E+00
   0.38400000E+01           0.00000000E+00
   0.38500000E+01           0.00000000E+00
   0.38600000E+01           0.00000000E+00
   0.38700000E+01           0.00000000E+00
   0.38800000E+01           0.00000000E+00
   0.38900000E+01           0.00000000E+00
   0.39000000E+01           0.00000000E+00
   0.39100000E+01           0.00000000E+00
   0.39200000E+01           0.00000000E+00
   0.39300000E+01           0.00000000E+00
   0.39400000E+01           0.00000000E+00
   0.39500000E+01           0.00000000E+00
   0.39600000E+01           0.00000000E+00
   0.39700000E+01           0.00000000E+00
   0.39800000E+01           0.00000000E+00
   0.39900000E+01           0.00000000E+00
   0.40000000E+01           0.00000000E+00
 #T=     6.0952
  -0.40000000E+01           0.00000000E+00
  -0.39900000E+01           0.00000000E+00
  -0.39800000E+01           0.00000000E+00
  -0.39700000E+01           0.00000000E+00
  -0.39600000E+01           0.00000000E+00
  -0.39500000E+01           0.00000000E+00
  -0.39400000E+01           0.00000000E+00
  -0.39300000E+01           0.00000000E+00
  -0.39200000E+01           0.00000000E+00
  -0.39100000E+01           0.00000000E+00
  -0.39000000E+01           0.00000000E+00
  -0.38900000E+01           0.00000000E+00
  -0.38800000E+01           0.00000000E+00
  -0.38700000E+01           0.00000000E+00
  -0.38600000E+01           0.00000000E+00
  -0.38500000E+01           0.00000000E+00
  -0.38400000E+01           0.00000000E+00
  -0.38300000E+01           0.00000000E+00
  -0.38200000E+01           0.00000000E+00
  -0.38100000E+01           0.00000000E+00
  -0.38000000E+01           0.00000000E+00
  -0.37900000E+01           0.00000000E+00
  -0.37800000E+01           0.00000000E+00
  -0.37700000E+01           0.00000000E+00
  -0.37600000E+01           0.00000000E+00
  -0.37500000E+01           0.00000000E+00
  -0.37400000E+01           0.00000000E+00
  -0.37300000E+01           0.00000000E+00
  -0.37200000E+01           0.00000000E+00
  -0.37100000E+01           0.00000000E+00
  -0.37000000E+01           0.00000000E+00
  -0.36900000E+01           0.00000000E+00
  -0.36800000E+01           0.00000000E+00
  -0.36700000E+01           0.00000000E+00
  -0.36600000E+01           0.00000000E+00
  -0.36500000E+01           0.00000000E+00
  -0.36400000E+01           0.00000000E+00
  -0.36300000E+01           0.00000000E+00
  -0.36200000E+01           0.00000000E+00
  -0.36100000E+01           0.00000000E+00
  -0.36000000E+01           0.00000000E+00
  -0.35900000E+01           0.00000000E+00
  -0.35800000E+01           0.00000000E+00
  -0.35700000E+01           0.00000000E+00
  -0.35600000E+01           0.00000000E+00
  -0.35500000E+01           0.00000000E+00
  -0.35400000E+01           0.00000000E+00
  -0.35300000E+01           0.00000000E+00
  -0.35200000E+01           0.00000000E+00
  -0.35100000E+01           0.00000000E+00
  -0.35000000E+01           0.00000000E+00
  -0.34900000E+01           0.00000000E+00
  -0.34800000E+01           0.00000000E+00
  -0.34700000E+01           0.00000000E+00
  -0.34600000E+01           0.00000000E+00
  -0.34500000E+01           0.00000000E+00
  -0.34400000E+01           0.00000000E+00
  -0.34300000E+01           0.00000000E+00
  -0.34200000E+01           0.00000000E+00
  -0.34100000E+01           0.00000000E+00
  -0.34000000E+01           0.00000000E+00
  -0.33900000E+01           0.00000000E+00
  -0.33800000E+01           0.00000000E+00
  -0.33700000E+01           0.00000000E+00
  -0.33600000E+01           0.00000000E+00
  -0.33500000E+01           0.00000000E+00
  -0.33400000E+01           0.00000000E+00
  -0.33300000E+01           0.00000000E+00
  -0.33200000E+01           0.00000000E+00
  -0.33100000E+01           0.00000000E+00
  -0.33000000E+01           0.00000000E+00
  -0.32900000E+01           0.00000000E+00
  -0.32800000E+01           0.00000000E+00
  -0.32700000E+01           0.00000000E+00
  -0.32600000E+01           0.00000000E+00
  -0.32500000E+01           0.00000000E+00
  -0.32400000E+01           0.00000000E+00
  -0.32300000E+01           0.00000000E+00
  -0.32200000E+01           0.00000000E+00
  -0.32100000E+01           0.00000000E+00
  -0.32000000E+01           0.00000000E+00
  -0.31900000E+01           0.00000000E+00
  -0.31800000E+01           0.00000000E+00
  -0.31700000E+01           0.00000000E+00
  -0.31600000E+01           0.00000000E+00
  -0.31500000E+01           0.00000000E+00
  -0.31400000E+01           0.00000000E+00
  -0.31300000E+01           0.00000000E+00
  -0.31200000E+01           0.00000000E+00
  -0.31100000E+01           0.00000000E+00
  -0.31000000E+01           0.00000000E+00
  -0.30900000E+01           0.00000000E+00
  -0.30800000E+01           0.00000000E+00
  -0.30700000E+01           0.00000000E+00
  -0.30600000E+01           0.00000000E+00
  -0.30500000E+01           0.00000000E+00
  -0.30400000E+01           0.00000000E+00
  -0.30300000E+01           0.00000000E+00
  -0.30200000E+01           0.00000000E+00
  -0.30100000E+01           0.00000000E+00
  -0.30000000E+01           0.00000000E+00
  -0.29900000E+01           0.00000000E+00
  -0.29800000E+01           0.00000000E+00
  -0.29700000E+01           0.00000000E+00
  -0.29600000E+01           0.00000000E+00
  -0.29500000E+01           0.00000000E+00
  -0.29400000E+01           0.00000000E+00
  -0.29300000E+01           0.00000000E+00
  -0.29200000E+01           0.00000000E+00
  -0.29100000E+01           0.00000000E+00
  -0.29000000E+01           0.00000000E+00
  -0.28900000E+01           0.00000000E+00
  -0.28800000E+01           0.00000000E+00
  -0.28700000E+01           0.00000000E+00
  -0.28600000E+01           0.00000000E+00
  -0.28500000E+01           0.00000000E+00
  -0.28400000E+01           0.00000000E+00
  -0.28300000E+01           0.00000000E+00
  -0.28200000E+01           0.00000000E+00
  -0.28100000E+01           0.00000000E+00
  -0.28000000E+01           0.00000000E+00
  -0.27900000E+01           0.00000000E+00
  -0.27800000E+01           0.00000000E+00
  -0.27700000E+01           0.00000000E+00
  -0.27600000E+01           0.00000000E+00
  -0.27500000E+01           0.00000000E+00
  -0.27400000E+01           0.00000000E+00
  -0.27300000E+01           0.00000000E+00
  -0.27200000E+01           0.00000000E+00
  -0.27100000E+01           0.00000000E+00
  -0.27000000E+01           0.00000000E+00
  -0.26900000E+01           0.00000000E+00
  -0.26800000E+01           0.00000000E+00
  -0.26700000E+01           0.00000000E+00
  -0.26600000E+01           0.00000000E+00
  -0.26500000E+01           0.00000000E+00
  -0.26400000E+01           0.00000000E+00
  -0.26300000E+01           0.00000000E+00
  -0.26200000E+01           0.00000000E+00
  -0.26100000E+01           0.00000000E+00
  -0.26000000E+01           0.00000000E+00
  -0.25900000E+01           0.00000000E+00
  -0.25800000E+01           0.00000000E+00
  -0.25700000E+01           0.00000000E+00
  -0.25600000E+01           0.00000000E+00
  -0.25500000E+01           0.00000000E+00
  -0.25400000E+01           0.00000000E+00
  -0.25300000E+01           0.00000000E+00
  -0.25200000E+01           0.00000000E+00
  -0.25100000E+01           0.00000000E+00
  -0.25000000E+01           0.00000000E+00
  -0.24900000E+01           0.00000000E+00
  -0.24800000E+01           0.00000000E+00
  -0.24700000E+01           0.00000000E+00
  -0.24600000E+01           0.00000000E+00
  -0.24500000E+01           0.00000000E+00
  -0.24400000E+01           0.00000000E+00
  -0.24300000E+01           0.00000000E+00
  -0.24200000E+01           0.00000000E+00
  -0.24100000E+01           0.00000000E+00
  -0.24000000E+01           0.00000000E+00
  -0.23900000E+01           0.00000000E+00
  -0.23800000E+01           0.00000000E+00
  -0.23700000E+01           0.00000000E+00
  -0.23600000E+01           0.00000000E+00
  -0.23500000E+01           0.00000000E+00
  -0.23400000E+01           0.00000000E+00
  -0.23300000E+01           0.00000000E+00
  -0.23200000E+01           0.00000000E+00
  -0.23100000E+01           0.00000000E+00
  -0.23000000E+01           0.00000000E+00
  -0.22900000E+01           0.00000000E+00
  -0.22800000E+01           0.00000000E+00
  -0.22700000E+01           0.00000000E+00
  -0.22600000E+01           0.00000000E+00
  -0.22500000E+01           0.00000000E+00
  -0.22400000E+01           0.00000000E+00
  -0.22300000E+01           0.00000000E+00
  -0.22200000E+01           0.00000000E+00
  -0.22100000E+01           0.00000000E+00
  -0.22000000E+01           0.00000000E+00
  -0.21900000E+01           0.00000000E+00
  -0.21800000E+01           0.00000000E+00
  -0.21700000E+01           0.00000000E+00
  -0.21600000E+01           0.00000000E+00
  -0.21500000E+01           0.00000000E+00
  -0.21400000E+01           0.00000000E+00
  -0.21300000E+01           0.00000000E+00
  -0.21200000E+01           0.00000000E+00
  -0.21100000E+01           0.00000000E+00
  -0.21000000E+01           0.00000000E+00
  -0.20900000E+01           0.00000000E+00
  -0.20800000E+01           0.00000000E+00
  -0.20700000E+01           0.00000000E+00
  -0.20600000E+01           0.00000000E+00
  -0.20500000E+01           0.00000000E+00
  -0.20400000E+01           0.00000000E+00
  -0.20300000E+01           0.00000000E+00
  -0.20200000E+01           0.00000000E+00
  -0.20100000E+01           0.00000000E+00
  -0.20000000E+01           0.00000000E+00
  -0.19900000E+01           0.00000000E+00
  -0.19800000E+01           0.00000000E+00
  -0.19700000E+01           0.00000000E+00
  -0.19600000E+01           0.00000000E+00
  -0.19500000E+01           0.00000000E+00
  -0.19400000E+01           0.00000000E+00
  -0.19300000E+01           0.00000000E+00
  -0.19200000E+01           0.00000000E+00
  -0.19100000E+01           0.00000000E+00
  -0.19000000E+01           0.00000000E+00
  -0.18900000E+01           0.00000000E+00
  -0.18800000E+01           0.00000000E+00
  -0.18700000E+01           0.00000000E+00
  -0.18600000E+01           0.00000000E+00
  -0.18500000E+01           0.00000000E+00
  -0.18400000E+01           0.00000000E+00
  -0.18300000E+01           0.00000000E+00
  -0.18200000E+01           0.00000000E+00
  -0.18100000E+01           0.00000000E+00
  -0.18000000E+01           0.00000000E+00
  -0.17900000E+01           0.00000000E+00
  -0.17800000E+01           0.00000000E+00
  -0.17700000E+01           0.00000000E+00
  -0.17600000E+01           0.00000000E+00
  -0.17500000E+01           0.00000000E+00
  -0.17400000E+01           0.00000000E+00
  -0.17300000E+01           0.00000000E+00
  -0.17200000E+01           0.00000000E+00
  -0.17100000E+01           0.00000000E+00
  -0.17000000E+01           0.00000000E+00
  -0.16900000E+01           0.00000000E+00
  -0.16800000E+01           0.00000000E+00
  -0.16700000E+01           0.00000000E+00
  -0.16600000E+01           0.00000000E+00
  -0.16500000E+01           0.00000000E+00
  -0.16400000E+01           0.00000000E+00
  -0.16300000E+01           0.00000000E+00
  -0.16200000E+01           0.00000000E+00
  -0.16100000E+01           0.00000000E+00
  -0.16000000E+01           0.00000000E+00
  -0.15900000E+01           0.00000000E+00
  -0.15800000E+01           0.00000000E+00
  -0.15700000E+01           0.00000000E+00
  -0.15600000E+01           0.00000000E+00
  -0.15500000E+01           0.00000000E+00
  -0.15400000E+01           0.00000000E+00
  -0.15300000E+01           0.00000000E+00
  -0.15200000E+01           0.00000000E+00
  -0.15100000E+01           0.00000000E+00
  -0.15000000E+01           0.00000000E+00
  -0.14900000E+01           0.00000000E+00
[...]
  -0.64000000E+00           0.00000000E+00
  -0.63000000E+00           0.00000000E+00
  -0.62000000E+00           0.00000000E+00
  -0.61000000E+00           0.00000000E+00
  -0.60000000E+00           0.00000000E+00
  -0.59000000E+00           0.00000000E+00
  -0.58000000E+00           0.00000000E+00
  -0.57000000E+00           0.00000000E+00
  -0.56000000E+00           0.00000000E+00
  -0.55000000E+00           0.00000000E+00
  -0.54000000E+00           0.00000000E+00
  -0.53000000E+00           0.00000000E+00
  -0.52000000E+00           0.00000000E+00
  -0.51000000E+00           0.00000000E+00
  -0.50000000E+00           0.00000000E+00
  -0.49000000E+00           0.00000000E+00
  -0.48000000E+00           0.00000000E+00
  -0.47000000E+00           0.00000000E+00
  -0.46000000E+00           0.00000000E+00
  -0.45000000E+00           0.00000000E+00
  -0.44000000E+00           0.00000000E+00
  -0.43000000E+00           0.00000000E+00
  -0.42000000E+00           0.00000000E+00
  -0.41000000E+00           0.00000000E+00
  -0.40000000E+00           0.00000000E+00
  -0.39000000E+00           0.00000000E+00
  -0.38000000E+00           0.00000000E+00
  -0.37000000E+00           0.00000000E+00
  -0.36000000E+00           0.00000000E+00
  -0.35000000E+00           0.00000000E+00
  -0.34000000E+00           0.00000000E+00
  -0.33000000E+00           0.00000000E+00
  -0.32000000E+00           0.00000000E+00
  -0.31000000E+00           0.00000000E+00
  -0.30000000E+00           0.00000000E+00
  -0.29000000E+00           0.00000000E+00
  -0.28000000E+00           0.00000000E+00
  -0.27000000E+00           0.00000000E+00
  -0.26000000E+00           0.00000000E+00
  -0.25000000E+00           0.00000000E+00
  -0.24000000E+00           0.00000000E+00
  -0.23000000E+00           0.00000000E+00
  -0.22000000E+00           0.00000000E+00
  -0.21000000E+00           0.00000000E+00
  -0.20000000E+00           0.00000000E+00
  -0.19000000E+00           0.00000000E+00
  -0.18000000E+00           0.00000000E+00
  -0.17000000E+00           0.00000000E+00
  -0.16000000E+00           0.00000000E+00
  -0.15000000E+00           0.00000000E+00
  -0.14000000E+00           0.00000000E+00
  -0.13000000E+00           0.00000000E+00
  -0.12000000E+00           0.00000000E+00
  -0.11000000E+00           0.00000000E+00
  -0.10000000E+00           0.00000000E+00
  -0.90000000E-01           0.00000000E+00
  -0.80000000E-01           0.00000000E+00
  -0.70000000E-01           0.00000000E+00
  -0.60000000E-01           0.00000000E+00
  -0.50000000E-01           0.00000000E+00
  -0.40000000E-01           0.00000000E+00
  -0.30000000E-01           0.00000000E+00
  -0.20000000E-01           0.00000000E+00
  -0.10000000E-01           0.00000000E+00
   0.00000000E+00           0.99826389E-05
   0.10000000E-01           0.26814236E-03
   0.20000000E-01           0.97994792E-03
   0.30000000E-01           0.21853299E-02
   0.40000000E-01           0.38190104E-02
   0.50000000E-01           0.59098090E-02
   0.60000000E-01           0.84372396E-02
   0.70000000E-01           0.11387847E-01
   0.80000000E-01           0.14788542E-01
   0.90000000E-01           0.18567535E-01
   0.10000000E+00           0.22757465E-01
   0.11000000E+00           0.27203733E-01
   0.12000000E+00           0.32191493E-01
   0.13000000E+00           0.37491840E-01
   0.14000000E+00           0.43037153E-01
   0.15000000E+00           0.49017187E-01
   0.16000000E+00           0.55303993E-01
   0.17000000E+00           0.61805729E-01
   0.18000000E+00           0.68754601E-01
   0.19000000E+00           0.75900174E-01
   0.20000000E+00           0.83120313E-01
   0.21000000E+00           0.90864323E-01
   0.22000000E+00           0.99001389E-01
   0.23000000E+00           0.10702717E+00
   0.24000000E+00           0.11534375E+00
   0.25000000E+00           0.12390382E+00
   0.26000000E+00           0.13282240E+00
   0.27000000E+00           0.14178264E+00
   0.28000000E+00           0.15087595E+00
   0.29000000E+00           0.16031866E+00
   0.30000000E+00           0.16975182E+00
   0.31000000E+00           0.17963507E+00
   0.32000000E+00           0.18920278E+00
   0.33000000E+00           0.19928377E+00
   0.34000000E+00           0.20916554E+00
   0.35000000E+00           0.21920964E+00
   0.36000000E+00           0.22944253E+00
   0.37000000E+00           0.23957674E+00
   0.38000000E+00           0.24989939E+00
   0.39000000E+00           0.26034896E+00
   0.40000000E+00           0.27100373E+00
   0.41000000E+00           0.28121224E+00
   0.42000000E+00           0.29212648E+00
   0.43000000E+00           0.30271033E+00
   0.44000000E+00           0.31301337E+00
   0.45000000E+00           0.32375686E+00
   0.46000000E+00           0.33451953E+00
   0.47000000E+00           0.34463220E+00
   0.48000000E+00           0.35557066E+00
   0.49000000E+00           0.36573377E+00
   0.50000000E+00           0.37645955E+00
   0.51000000E+00           0.38670399E+00
   0.52000000E+00           0.39677101E+00
   0.53000000E+00           0.40698229E+00
   0.54000000E+00           0.41702309E+00
   0.55000000E+00           0.42752109E+00
   0.56000000E+00           0.43704158E+00
   0.57000000E+00           0.44725790E+00
   0.58000000E+00           0.45682569E+00
   0.59000000E+00           0.46686580E+00
   0.60000000E+00           0.47625503E+00
   0.61000000E+00           0.48605486E+00
   0.62000000E+00           0.49508845E+00
   0.63000000E+00           0.50385087E+00
   0.64000000E+00           0.51299366E+00
   0.65000000E+00           0.52183759E+00
   0.66000000E+00           0.53069922E+00
   0.67000000E+00           0.53967266E+00
   0.68000000E+00           0.54770972E+00
   0.69000000E+00           0.55580990E+00
   0.70000000E+00           0.56365538E+00
   0.71000000E+00           0.57183490E+00
   0.72000000E+00           0.57931510E+00
   0.73000000E+00           0.58676988E+00
   0.74000000E+00           0.59405938E+00
   0.75000000E+00           0.60133394E+00
   0.76000000E+00           0.60813134E+00
   0.77000000E+00           0.61494418E+00
   0.78000000E+00           0.62200477E+00
   0.79000000E+00           0.62766962E+00
   0.80000000E+00           0.63372682E+00
   0.81000000E+00           0.63977665E+00
   0.82000000E+00           0.64540304E+00
   0.83000000E+00           0.65081936E+00
   0.84000000E+00           0.65579115E+00
   0.85000000E+00           0.66128151E+00
   0.86000000E+00           0.66551580E+00
   0.87000000E+00           0.67062405E+00
   0.88000000E+00           0.67487188E+00
   0.89000000E+00           0.67897786E+00
   0.90000000E+00           0.68322847E+00
   0.91000000E+00           0.68668012E+00
   0.92000000E+00           0.69017031E+00
   0.93000000E+00           0.69335894E+00
   0.94000000E+00           0.69649271E+00
   0.95000000E+00           0.69899479E+00
   0.96000000E+00           0.70194557E+00
   0.97000000E+00           0.70433828E+00
   0.98000000E+00           0.70683082E+00
   0.99000000E+00           0.70829123E+00
   0.10000000E+01           0.70985312E+00
   0.10100000E+01           0.71163151E+00
   0.10200000E+01           0.71303359E+00
   0.10300000E+01           0.71393160E+00
   0.10400000E+01           0.71460104E+00
   0.10500000E+01           0.71514714E+00
   0.10600000E+01           0.71599297E+00
   0.10700000E+01           0.71607274E+00
   0.10800000E+01           0.71638863E+00
   0.10900000E+01           0.71587214E+00
   0.11000000E+01           0.71621771E+00
   0.11100000E+01           0.71517491E+00
   0.11200000E+01           0.71437691E+00
   0.11300000E+01           0.71360217E+00
   0.11400000E+01           0.71252960E+00
   0.11500000E+01           0.71102387E+00
   0.11600000E+01           0.70893273E+00
   0.11700000E+01           0.70714505E+00
   0.11800000E+01           0.70600573E+00
   0.11900000E+01           0.70348759E+00
   0.12000000E+01           0.70181536E+00
   0.12100000E+01           0.69876632E+00
   0.12200000E+01           0.69670712E+00
   0.12300000E+01           0.69370660E+00
   0.12400000E+01           0.69081042E+00
   0.12500000E+01           0.68743446E+00
   0.12600000E+01           0.68491658E+00
   0.12700000E+01           0.68165174E+00
   0.12800000E+01           0.67736745E+00
   0.12900000E+01           0.67396649E+00
   0.13000000E+01           0.67033585E+00
   0.13100000E+01           0.66645790E+00
   0.13200000E+01           0.66223455E+00
   0.13300000E+01           0.65842778E+00
   0.13400000E+01           0.65396424E+00
   0.13500000E+01           0.64897569E+00
   0.13600000E+01           0.64502222E+00
   0.13700000E+01           0.64085365E+00
   0.13800000E+01           0.63560564E+00
   0.13900000E+01           0.63084948E+00
   0.14000000E+01           0.62590434E+00
   0.14100000E+01           0.62050868E+00
   0.14200000E+01           0.61556875E+00
   0.14300000E+01           0.61097856E+00
   0.14400000E+01           0.60457977E+00
   0.14500000E+01           0.59913368E+00
   0.14600000E+01           0.59362474E+00
   0.14700000E+01           0.58786484E+00
   0.14800000E+01           0.58244219E+00
   0.14900000E+01           0.57685226E+00
   0.15000000E+01           0.57108481E+00
   0.15100000E+01           0.56507561E+00
   0.15200000E+01           0.55892786E+00
   0.15300000E+01           0.55281094E+00
   0.15400000E+01           0.54736259E+00
   0.15500000E+01           0.54058498E+00
   0.15600000E+01           0.53470530E+00
   0.15700000E+01           0.52831450E+00
   0.15800000E+01           0.52245521E+00
   0.15900000E+01           0.51630174E+00
   0.16000000E+01           0.50982135E+00
   0.16100000E+01           0.50325990E+00
   0.16200000E+01           0.49758073E+00
   0.16300000E+01           0.49076736E+00
   0.16400000E+01           0.48421441E+00
   0.16500000E+01           0.47796649E+00
   0.16600000E+01           0.47132274E+00
   0.16700000E+01           0.46471276E+00
   0.16800000E+01           0.45859115E+00
   0.16900000E+01           0.45217760E+00
   0.17000000E+01           0.44528342E+00
   0.17100000E+01           0.43916780E+00
   0.17200000E+01           0.43229740E+00
   0.17300000E+01           0.42607943E+00
   0.17400000E+01           0.41943568E+00
   0.17500000E+01           0.41293542E+00
   0.17600000E+01           0.40648359E+00
   0.17700000E+01           0.39983160E+00
   0.17800000E+01           0.39369714E+00
   0.17900000E+01           0.38712465E+00
   0.18000000E+01           0.38063993E+00
   0.18100000E+01           0.37403524E+00
   0.18200000E+01           0.36777222E+00
   0.18300000E+01           0.36162856E+00
   0.18400000E+01           0.35501146E+00
   0.18500000E+01           0.34875608E+00
   0.18600000E+01           0.34242604E+00
   0.18700000E+01           0.33608429E+00
   0.18800000E+01           0.32999488E+00
   0.18900000E+01           0.32369280E+00
   0.19000000E+01           0.31774896E+00
   0.19100000E+01           0.31133108E+00
   0.19200000E+01           0.30522569E+00
   0.19300000E+01           0.29956024E+00
   0.19400000E+01           0.29355130E+00
   0.19500000E+01           0.28737500E+00
   0.19600000E+01           0.28158724E+00
   0.19700000E+01           0.27575182E+00
   0.19800000E+01           0.26965009E+00
   0.19900000E+01           0.26387925E+00
   0.20000000E+01           0.25812882E+00
   0.20100000E+01           0.25280365E+00
   0.20200000E+01           0.24727083E+00
   0.20300000E+01           0.24173628E+00
   0.20400000E+01           0.23613429E+00
   0.20500000E+01           0.23106927E+00
   0.20600000E+01           0.22558299E+00
   0.20700000E+01           0.22066649E+00
   0.20800000E+01           0.21531250E+00
   0.20900000E+01           0.21032318E+00
   0.21000000E+01           0.20562925E+00
   0.21100000E+01           0.20075252E+00
   0.21200000E+01           0.19596563E+00
   0.21300000E+01           0.19127040E+00
   0.21400000E+01           0.18676866E+00
   0.21500000E+01           0.18196719E+00
   0.21600000E+01           0.17785755E+00
   0.21700000E+01           0.17338490E+00
   0.21800000E+01           0.16921797E+00
   0.21900000E+01           0.16513880E+00
   0.22000000E+01           0.16081250E+00
   0.22100000E+01           0.15703455E+00
   0.22200000E+01           0.15295156E+00
   0.22300000E+01           0.14913437E+00
   0.22400000E+01           0.14518142E+00
   0.22500000E+01           0.14139983E+00
   0.22600000E+01           0.13794896E+00
   0.22700000E+01           0.13430859E+00
   0.22800000E+01           0.13074549E+00
   0.22900000E+01           0.12711302E+00
   0.23000000E+01           0.12391953E+00
   0.23100000E+01           0.12070807E+00
   0.23200000E+01           0.11736606E+00
   0.23300000E+01           0.11421884E+00
   0.23400000E+01           0.11122995E+00
   0.23500000E+01           0.10807804E+00
   0.23600000E+01           0.10518984E+00
   0.23700000E+01           0.10206927E+00
   0.23800000E+01           0.99479514E-01
   0.23900000E+01           0.96608941E-01
   0.24000000E+01           0.93911632E-01
   0.24100000E+01           0.91043403E-01
   0.24200000E+01           0.88460938E-01
   0.24300000E+01           0.86092882E-01
   0.24400000E+01           0.83516059E-01
   0.24500000E+01           0.80970399E-01
   0.24600000E+01           0.78567535E-01
   0.24700000E+01           0.76430642E-01
   0.24800000E+01           0.74143576E-01
   0.24900000E+01           0.71986719E-01
   0.25000000E+01           0.69803993E-01
   0.25100000E+01           0.67500087E-01
   0.25200000E+01           0.65543229E-01
   0.25300000E+01           0.63519878E-01
   0.25400000E+01           0.61681684E-01
   0.25500000E+01           0.59822049E-01
   0.25600000E+01           0.57827951E-01
   0.25700000E+01           0.56004427E-01
   0.25800000E+01           0.54424826E-01
   0.25900000E+01           0.52488715E-01
   0.26000000E+01           0.50944531E-01
   0.26100000E+01           0.49403733E-01
   0.26200000E+01           0.47554514E-01
   0.26300000E+01           0.46066580E-01
   0.26400000E+01           0.44510330E-01
   0.26500000E+01           0.43170313E-01
   0.26600000E+01           0.41797135E-01
   0.26700000E+01           0.40383247E-01
   0.26800000E+01           0.38914323E-01
   0.26900000E+01           0.37665017E-01
   0.27000000E+01           0.36333333E-01
   0.27100000E+01           0.35243316E-01
   0.27200000E+01           0.33940451E-01
   0.27300000E+01           0.32847830E-01
   0.27400000E+01           0.31622656E-01
   0.27500000E+01           0.30572656E-01
   0.27600000E+01           0.29529253E-01
   0.27700000E+01           0.28444358E-01
   0.27800000E+01           0.27473177E-01
   0.27900000E+01           0.26519010E-01
   0.28000000E+01           0.25380035E-01
   0.28100000E+01           0.24613455E-01
   0.28200000E+01           0.23741493E-01
   0.28300000E+01           0.22850087E-01
   0.28400000E+01           0.21985243E-01
   0.28500000E+01           0.21165712E-01
   0.28600000E+01           0.20337500E-01
   0.28700000E+01           0.19602951E-01
   0.28800000E+01           0.18825347E-01
   0.28900000E+01           0.18111372E-01
   0.29000000E+01           0.17469097E-01
   0.29100000E+01           0.16766146E-01
   0.29200000E+01           0.16134115E-01
   0.29300000E+01           0.15443750E-01
   0.29400000E+01           0.14848611E-01
   0.29500000E+01           0.14311198E-01
   0.29600000E+01           0.13719531E-01
   0.29700000E+01           0.13171267E-01
   0.29800000E+01           0.12563455E-01
   0.29900000E+01           0.12139757E-01
   0.30000000E+01           0.11609375E-01
   0.30100000E+01           0.11171875E-01
   0.30200000E+01           0.10698264E-01
   0.30300000E+01           0.10246094E-01
   0.30400000E+01           0.97357639E-02
   0.30500000E+01           0.93793403E-02
   0.30600000E+01           0.89009549E-02
   0.30700000E+01           0.86447917E-02
   0.30800000E+01           0.82332465E-02
   0.30900000E+01           0.78823785E-02
   0.31000000E+01           0.75165799E-02
   0.31100000E+01           0.71816840E-02
   0.31200000E+01           0.68609375E-02
   0.31300000E+01           0.65119792E-02
   0.31400000E+01           0.62563368E-02
   0.31500000E+01           0.59825521E-02
   0.31600000E+01           0.56894097E-02
   0.31700000E+01           0.54435764E-02
   0.31800000E+01           0.52164062E-02
   0.31900000E+01           0.49244792E-02
   0.32000000E+01           0.46765625E-02
   0.32100000E+01           0.44710069E-02
   0.32200000E+01           0.42808160E-02
   0.32300000E+01           0.40626736E-02
   0.32400000E+01           0.38861111E-02
   0.32500000E+01           0.36887153E-02
   0.32600000E+01           0.34800347E-02
   0.32700000E+01           0.32968750E-02
   0.32800000E+01           0.31625868E-02
   0.32900000E+01           0.29926215E-02
   0.33000000E+01           0.28332465E-02
   0.33100000E+01           0.26846354E-02
   0.33200000E+01           0.25572917E-02
   0.33300000E+01           0.24098958E-02
   0.33400000E+01           0.22764757E-02
   0.33500000E+01           0.21852431E-02
   0.33600000E+01           0.20365451E-02
   0.33700000E+01           0.19114583E-02
   0.33800000E+01           0.18059028E-02
   0.33900000E+01           0.17076389E-02
   0.34000000E+01           0.16113715E-02
   0.34100000E+01           0.15519965E-02
   0.34200000E+01           0.14487847E-02
   0.34300000E+01           0.13696181E-02
   0.34400000E+01           0.12782986E-02
   0.34500000E+01           0.12021701E-02
   0.34600000E+01           0.11335069E-02
   0.34700000E+01           0.10477431E-02
   0.34800000E+01           0.10031250E-02
   0.34900000E+01           0.92039931E-03
   0.35000000E+01           0.87213542E-03
   0.35100000E+01           0.80789931E-03
   0.35200000E+01           0.75494792E-03
   0.35300000E+01           0.71848958E-03
   0.35400000E+01           0.67404514E-03
   0.35500000E+01           0.62361111E-03
   0.35600000E+01           0.57213542E-03
   0.35700000E+01           0.55164931E-03
   0.35800000E+01           0.49748264E-03
   0.35900000E+01           0.46614583E-03
   0.36000000E+01           0.43229167E-03
   0.36100000E+01           0.40772569E-03
   0.36200000E+01           0.38012153E-03
   0.36300000E+01           0.34218750E-03
   0.36400000E+01           0.30564236E-03
   0.36500000E+01           0.29045139E-03
   0.36600000E+01           0.26875000E-03
   0.36700000E+01           0.23463542E-03
   0.36800000E+01           0.21918403E-03
   0.36900000E+01           0.20243056E-03
   0.37000000E+01           0.18888889E-03
   0.37100000E+01           0.17022569E-03
   0.37200000E+01           0.15338542E-03
   0.37300000E+01           0.13906250E-03
   0.37400000E+01           0.11857639E-03
   0.37500000E+01           0.11293403E-03
   0.37600000E+01           0.10043403E-03
   0.37700000E+01           0.93142361E-04
   0.37800000E+01           0.80381944E-04
   0.37900000E+01           0.71614583E-04
   0.38000000E+01           0.63281250E-04
   0.38100000E+01           0.53385417E-04
   0.38200000E+01           0.44878472E-04
   0.38300000E+01           0.41753472E-04
   0.38400000E+01           0.35069444E-04
   0.38500000E+01           0.32204861E-04
   0.38600000E+01           0.24565972E-04
   0.38700000E+01           0.21701389E-04
   0.38800000E+01           0.18489583E-04
   0.38900000E+01           0.16406250E-04
   0.39000000E+01           0.12934028E-04
   0.39100000E+01           0.92013889E-05
   0.39200000E+01           0.65972222E-05
   0.39300000E+01           0.55555556E-05
   0.39400000E+01           0.29513889E-05
   0.39500000E+01           0.33854167E-05
   0.39600000E+01           0.17361111E-05
   0.39700000E+01           0.60763889E-06
   0.39800000E+01           0.43402778E-06
   0.39900000E+01           0.86805556E-07
   0.40000000E+01           0.00000000E+00
