 #written on  7Aug2021 at 23:08:01 
 #----------------------------------------------- MONTECARLO ---------------------------------------------------#
 # Temp      Magnetization     Energy_ave          C_M              Sus              U_E              U_M       #
 #--------------------------------------------------------------------------------------------------------------#
   4.0000   0.17427078E-02  -0.17178947E+03   0.10082994E+01   0.39819451E-03   0.66666635E+00   0.37318444E+00
   4.1965   0.17862855E-02  -0.17159126E+03   0.10124923E+01   0.39656404E-03   0.66666632E+00   0.37531750E+00
   4.4028   0.18306909E-02  -0.17138206E+03   0.10178536E+01   0.39510479E-03   0.66666628E+00   0.37657081E+00
   4.6191   0.18761240E-02  -0.17116302E+03   0.10165387E+01   0.39395089E-03   0.66666624E+00   0.37751385E+00
   4.8461   0.19217208E-02  -0.17093227E+03   0.10117945E+01   0.39428090E-03   0.66666620E+00   0.37693379E+00
   5.0841   0.19732018E-02  -0.17069162E+03   0.10132388E+01   0.39215927E-03   0.66666615E+00   0.38022392E+00
   5.3332   0.20237079E-02  -0.17043967E+03   0.10117432E+01   0.39184131E-03   0.66666609E+00   0.38077659E+00
   5.5946   0.20729694E-02  -0.17017430E+03   0.10198910E+01   0.39047422E-03   0.66666603E+00   0.38199557E+00
   5.8687   0.21269663E-02  -0.16989522E+03   0.10161407E+01   0.38979831E-03   0.66666597E+00   0.38309951E+00
   6.1563   0.21825975E-02  -0.16960235E+03   0.10192896E+01   0.39064360E-03   0.66666589E+00   0.38332033E+00
   6.4577   0.22373720E-02  -0.16929573E+03   0.10181405E+01   0.38696429E-03   0.66666581E+00   0.38727181E+00
   6.7738   0.22944960E-02  -0.16897419E+03   0.10178556E+01   0.38654683E-03   0.66666572E+00   0.38804338E+00
   7.1055   0.23509379E-02  -0.16863630E+03   0.10156320E+01   0.38530156E-03   0.66666562E+00   0.38848342E+00
   7.4543   0.24141949E-02  -0.16827984E+03   0.10132046E+01   0.38481380E-03   0.66666552E+00   0.39051563E+00
   7.8204   0.24733170E-02  -0.16790466E+03   0.10179206E+01   0.38279394E-03   0.66666539E+00   0.39184519E+00
   8.2044   0.25396207E-02  -0.16751253E+03   0.10189737E+01   0.38269841E-03   0.66666525E+00   0.39350723E+00
   8.6036   0.26045536E-02  -0.16710278E+03   0.10200698E+01   0.38266583E-03   0.66666510E+00   0.39435160E+00
   9.0223   0.26699727E-02  -0.16667347E+03   0.10282600E+01   0.38060205E-03   0.66666492E+00   0.39678286E+00
   9.4613   0.27374271E-02  -0.16622131E+03   0.10340516E+01   0.37876022E-03   0.66666473E+00   0.39844298E+00
   9.9216   0.28117273E-02  -0.16574793E+03   0.10254009E+01   0.37905023E-03   0.66666454E+00   0.40002659E+00
  10.4044   0.28822764E-02  -0.16525003E+03   0.10391726E+01   0.37740346E-03   0.66666428E+00   0.40156065E+00
  10.9106   0.29557987E-02  -0.16472550E+03   0.10366593E+01   0.37636049E-03   0.66666403E+00   0.40322014E+00
  11.4414   0.30340009E-02  -0.16417565E+03   0.10333632E+01   0.37614530E-03   0.66666376E+00   0.40453504E+00
  11.9979   0.31140606E-02  -0.16359910E+03   0.10399682E+01   0.37500318E-03   0.66666343E+00   0.40697639E+00
  12.5791   0.31928821E-02  -0.16299458E+03   0.10426956E+01   0.37314086E-03   0.66666307E+00   0.40929862E+00
  13.1840   0.32715232E-02  -0.16236367E+03   0.10438376E+01   0.37195676E-03   0.66666268E+00   0.41073033E+00
  13.8221   0.33603633E-02  -0.16169631E+03   0.10430254E+01   0.37273489E-03   0.66666226E+00   0.41182639E+00
  14.4939   0.34463971E-02  -0.16099396E+03   0.10489290E+01   0.37068337E-03   0.66666175E+00   0.41431068E+00
  15.1928   0.35362626E-02  -0.16025961E+03   0.10513441E+01   0.37053446E-03   0.66666120E+00   0.41629440E+00
  15.9224   0.36293045E-02  -0.15948909E+03   0.10498031E+01   0.37066094E-03   0.66666061E+00   0.41722360E+00
  16.6848   0.37247718E-02  -0.15868391E+03   0.10585533E+01   0.36973502E-03   0.66665989E+00   0.42008380E+00
  17.4862   0.38212801E-02  -0.15783456E+03   0.10606014E+01   0.36982521E-03   0.66665913E+00   0.42072003E+00
  18.3260   0.39189545E-02  -0.15694027E+03   0.10696594E+01   0.36817847E-03   0.66665823E+00   0.42332661E+00
  19.2008   0.40226145E-02  -0.15600381E+03   0.10668081E+01   0.36805832E-03   0.66665732E+00   0.42451619E+00
  20.1146   0.41259123E-02  -0.15502305E+03   0.10723266E+01   0.36766965E-03   0.66665622E+00   0.42639449E+00
  21.0726   0.42351275E-02  -0.15398998E+03   0.10796988E+01   0.36805756E-03   0.66665497E+00   0.42788021E+00
  22.0727   0.43452512E-02  -0.15290471E+03   0.10883400E+01   0.36733303E-03   0.66665354E+00   0.42976954E+00
  23.1153   0.44568574E-02  -0.15176634E+03   0.10955807E+01   0.36773222E-03   0.66665196E+00   0.43121438E+00
  24.2072   0.45741833E-02  -0.15056750E+03   0.11012425E+01   0.36796538E-03   0.66665020E+00   0.43265577E+00
  25.3406   0.46880046E-02  -0.14931324E+03   0.11074947E+01   0.36798617E-03   0.66664821E+00   0.43367363E+00
  26.5269   0.48126843E-02  -0.14799417E+03   0.11152797E+01   0.36882548E-03   0.66664593E+00   0.43513749E+00
  27.7640   0.49331935E-02  -0.14660785E+03   0.11276195E+01   0.36872607E-03   0.66664327E+00   0.43664108E+00
  29.0581   0.50665563E-02  -0.14514280E+03   0.11378373E+01   0.37047969E-03   0.66664028E+00   0.43703981E+00
  30.3977   0.51968720E-02  -0.14361290E+03   0.11489379E+01   0.37097007E-03   0.66663689E+00   0.43880880E+00
  31.7856   0.53268974E-02  -0.14200850E+03   0.11633191E+01   0.37264798E-03   0.66663295E+00   0.43881704E+00
  33.2364   0.54636430E-02  -0.14030644E+03   0.11773551E+01   0.37335864E-03   0.66662845E+00   0.44033880E+00
  34.7461   0.56038297E-02  -0.13851459E+03   0.11985864E+01   0.37589880E-03   0.66662303E+00   0.44035120E+00
  36.3028   0.57477376E-02  -0.13662636E+03   0.12246612E+01   0.37656572E-03   0.66661665E+00   0.44175406E+00
  37.9131   0.58903778E-02  -0.13463342E+03   0.12549220E+01   0.37818019E-03   0.66660910E+00   0.44197085E+00
  39.5756   0.60430456E-02  -0.13252370E+03   0.12899044E+01   0.38081269E-03   0.66660012E+00   0.44245205E+00
  41.2693   0.61920358E-02  -0.13029726E+03   0.13408419E+01   0.38287501E-03   0.66658886E+00   0.44307575E+00
  43.0001   0.63478639E-02  -0.12792335E+03   0.14016239E+01   0.38482398E-03   0.66657507E+00   0.44388100E+00
  44.7682   0.65032616E-02  -0.12538495E+03   0.14775550E+01   0.38855192E-03   0.66655773E+00   0.44357078E+00
  46.5724   0.66645533E-02  -0.12266176E+03   0.15421611E+01   0.39169119E-03   0.66653809E+00   0.44384074E+00
  48.3985   0.68281728E-02  -0.11979306E+03   0.15868517E+01   0.39545250E-03   0.66651686E+00   0.44447374E+00
  50.2879   0.69922439E-02  -0.11679057E+03   0.15809993E+01   0.39965220E-03   0.66649713E+00   0.44384194E+00
  52.2659   0.71605427E-02  -0.11369011E+03   0.15505597E+01   0.40237257E-03   0.66647712E+00   0.44467496E+00
  54.3381   0.73341170E-02  -0.11050559E+03   0.15109870E+01   0.40614245E-03   0.66645536E+00   0.44434635E+00
  56.5400   0.75166956E-02  -0.10723941E+03   0.14588571E+01   0.41047351E-03   0.66643212E+00   0.44435695E+00
  58.8635   0.77010112E-02  -0.10391686E+03   0.13962601E+01   0.41358212E-03   0.66640753E+00   0.44428192E+00
  61.3496   0.78908211E-02  -0.10052771E+03   0.13283988E+01   0.41718460E-03   0.66638049E+00   0.44397266E+00
  64.0153   0.80891943E-02  -0.97093881E+02   0.12475961E+01   0.41952017E-03   0.66635298E+00   0.44423752E+00
  66.8857   0.82941808E-02  -0.93623227E+02   0.11676501E+01   0.42195007E-03   0.66632197E+00   0.44420412E+00
  70.0000   0.85004051E-02  -0.90121278E+02   0.10866422E+01   0.42326571E-03   0.66628749E+00   0.44455537E+00
