 #written on  7Aug2021 at 23:08:01 
 #---------------------------------------------------- MONTECARLO ----------------------------------------------------#
 #  Temp    Shell   Atom1   Type1   Atom2   Type2   <\sum_{ij} Si.Sj/N>   <\sum_{ij}|Si.Sj|/N>   <|\sum_{ij}Si.Sj|/N> #
 #--------------------------------------------------------------------------------------------------------------------#
   4.0000     1      Mn       1      Mn       1        -0.976476073           0.976476073             0.976476073
   4.0000     2      Mn       1      Mn       1         0.058461350           0.836501750             0.835591712
   4.0000     3      Mn       1      Mn       1         0.964454861           0.964454862             0.964454861
   4.0000     4      Mn       1      Mn       1        -0.060594210           0.836657436             0.835746572
   4.0000     5      Mn       1      Mn       1        -0.961653881           0.961653882             0.961653881
   4.0000     6      Mn       1      Mn       1         0.062053235           0.836755981             0.835845902
   4.0000     7      Mn       1      Mn       1        -0.063013109           0.836823945             0.835913980
   4.1965     1      Mn       1      Mn       1        -0.975316762           0.975316762             0.975316762
   4.1965     2      Mn       1      Mn       1         0.056212585           0.833313622             0.832346919
   4.1965     3      Mn       1      Mn       1         0.962713023           0.962713023             0.962713023
   4.1965     4      Mn       1      Mn       1        -0.058443846           0.833471024             0.832503437
   4.1965     5      Mn       1      Mn       1        -0.959777831           0.959777831             0.959777831
   4.1965     6      Mn       1      Mn       1         0.059968109           0.833573641             0.832605708
   4.1965     7      Mn       1      Mn       1        -0.060974552           0.833644733             0.832676312
   4.4028     1      Mn       1      Mn       1        -0.974093334           0.974093334             0.974093334
   4.4028     2      Mn       1      Mn       1         0.073853639           0.828910801             0.827833039
   4.4028     3      Mn       1      Mn       1         0.960864882           0.960864882             0.960864882
   4.4028     4      Mn       1      Mn       1        -0.076188652           0.829127277             0.828049646
   4.4028     5      Mn       1      Mn       1        -0.957783942           0.957783942             0.957783942
   4.4028     6      Mn       1      Mn       1         0.077784440           0.829269240             0.828192232
   4.4028     7      Mn       1      Mn       1        -0.078837148           0.829366843             0.828289121
   4.6191     1      Mn       1      Mn       1        -0.972812483           0.972812484             0.972812483
   4.6191     2      Mn       1      Mn       1         0.043918033           0.827089426             0.826055793
   4.6191     3      Mn       1      Mn       1         0.958937873           0.958937873             0.958937873
   4.6191     4      Mn       1      Mn       1        -0.046362573           0.827227811             0.826192999
   4.6191     5      Mn       1      Mn       1        -0.955706342           0.955706343             0.955706342
   4.6191     6      Mn       1      Mn       1         0.048029174           0.827320074             0.826283977
   4.6191     7      Mn       1      Mn       1        -0.049129940           0.827383780             0.826347404
   4.8461     1      Mn       1      Mn       1        -0.971462838           0.971462838             0.971462838
   4.8461     2      Mn       1      Mn       1         0.038903838           0.823803018             0.822742911
   4.8461     3      Mn       1      Mn       1         0.956907246           0.956907246             0.956907246
   4.8461     4      Mn       1      Mn       1        -0.041465730           0.823928485             0.822867989
   4.8461     5      Mn       1      Mn       1        -0.953517852           0.953517852             0.953517852
   4.8461     6      Mn       1      Mn       1         0.043209418           0.824005400             0.822946200
   4.8461     7      Mn       1      Mn       1        -0.044361857           0.824063465             0.823004792
   5.0841     1      Mn       1      Mn       1        -0.970056264           0.970056264             0.970056264
   5.0841     2      Mn       1      Mn       1         0.034925109           0.816834208             0.815493944
   5.0841     3      Mn       1      Mn       1         0.954790834           0.954790834             0.954790834
   5.0841     4      Mn       1      Mn       1        -0.037601447           0.816954496             0.815615558
   5.0841     5      Mn       1      Mn       1        -0.951236158           0.951236158             0.951236158
   5.0841     6      Mn       1      Mn       1         0.039424292           0.817028335             0.815690700
   5.0841     7      Mn       1      Mn       1        -0.040629219           0.817082189             0.815745229
   5.3332     1      Mn       1      Mn       1        -0.968583126           0.968583127             0.968583126
   5.3332     2      Mn       1      Mn       1         0.023879855           0.814016908             0.812669909
   5.3332     3      Mn       1      Mn       1         0.952580879           0.952580879             0.952580879
   5.3332     4      Mn       1      Mn       1        -0.026680324           0.814104678             0.812761708
   5.3332     5      Mn       1      Mn       1        -0.948856694           0.948856695             0.948856694
   5.3332     6      Mn       1      Mn       1         0.028586235           0.814155956             0.812815680
   5.3332     7      Mn       1      Mn       1        -0.029846916           0.814197114             0.812857627
   5.5946     1      Mn       1      Mn       1        -0.967031918           0.967031918             0.967031918
   5.5946     2      Mn       1      Mn       1         0.020407955           0.807556315             0.806019649
   5.5946     3      Mn       1      Mn       1         0.950246697           0.950246697             0.950246697
   5.5946     4      Mn       1      Mn       1        -0.023337518           0.807635554             0.806106120
   5.5946     5      Mn       1      Mn       1        -0.946339930           0.946339930             0.946339930
   5.5946     6      Mn       1      Mn       1         0.025330903           0.807680441             0.806156148
   5.5946     7      Mn       1      Mn       1        -0.026648106           0.807715592             0.806195067
   5.8687     1      Mn       1      Mn       1        -0.965400590           0.965400591             0.965400590
   5.8687     2      Mn       1      Mn       1         0.030957190           0.802178340             0.800257286
   5.8687     3      Mn       1      Mn       1         0.947797232           0.947797233             0.947797232
   5.8687     4      Mn       1      Mn       1        -0.034019610           0.802302858             0.800393935
   5.8687     5      Mn       1      Mn       1        -0.943701753           0.943701753             0.943701753
   5.8687     6      Mn       1      Mn       1         0.036099271           0.802377791             0.800478867
   5.8687     7      Mn       1      Mn       1        -0.037477554           0.802434222             0.800540906
   6.1563     1      Mn       1      Mn       1        -0.963688589           0.963688589             0.963688589
   6.1563     2      Mn       1      Mn       1         0.018143322           0.796735543             0.794311481
   6.1563     3      Mn       1      Mn       1         0.945225453           0.945225453             0.945225453
   6.1563     4      Mn       1      Mn       1        -0.021345557           0.796814936             0.794403337
   6.1563     5      Mn       1      Mn       1        -0.940932299           0.940932299             0.940932299
   6.1563     6      Mn       1      Mn       1         0.023521437           0.796857198             0.794455794
   6.1563     7      Mn       1      Mn       1        -0.024962969           0.796892796             0.794497649
   6.4577     1      Mn       1      Mn       1        -0.961896386           0.961896387             0.961896386
   6.4577     2      Mn       1      Mn       1         0.003741146           0.790372105             0.787428856
   6.4577     3      Mn       1      Mn       1         0.942531706           0.942531706             0.942531706
   6.4577     4      Mn       1      Mn       1        -0.007089765           0.790391583             0.787464997
   6.4577     5      Mn       1      Mn       1        -0.938031409           0.938031410             0.938031409
   6.4577     6      Mn       1      Mn       1         0.009363681           0.790387932             0.787474594
   6.4577     7      Mn       1      Mn       1        -0.010869205           0.790395199             0.787488949
   6.7738     1      Mn       1      Mn       1        -0.960016543           0.960016543             0.960016543
   6.7738     2      Mn       1      Mn       1        -0.012635238           0.786656474             0.783630227
   6.7738     3      Mn       1      Mn       1         0.939716335           0.939716335             0.939716335
   6.7738     4      Mn       1      Mn       1         0.009127482           0.786610527             0.783602163
   6.7738     5      Mn       1      Mn       1        -0.934999031           0.934999033             0.934999031
   6.7738     6      Mn       1      Mn       1        -0.006746982           0.786564553             0.783571194
   6.7738     7      Mn       1      Mn       1         0.005169175           0.786544680             0.783558811
   7.1055     1      Mn       1      Mn       1        -0.958042093           0.958042093             0.958042093
   7.1055     2      Mn       1      Mn       1        -0.004366896           0.780181565             0.776548837
   7.1055     3      Mn       1      Mn       1         0.936760429           0.936760429             0.936760429
   7.1055     4      Mn       1      Mn       1         0.000699074           0.780174531             0.776560537
   7.1055     5      Mn       1      Mn       1        -0.931817797           0.931817799             0.931817797
   7.1055     6      Mn       1      Mn       1         0.001785451           0.780157456             0.776558282
   7.1055     7      Mn       1      Mn       1        -0.003432444           0.780156277             0.776565425
   7.4543     1      Mn       1      Mn       1        -0.955961185           0.955961185             0.955961185
   7.4543     2      Mn       1      Mn       1         0.000185589           0.771012534             0.766453718
   7.4543     3      Mn       1      Mn       1         0.933639754           0.933639756             0.933639754
   7.4543     4      Mn       1      Mn       1        -0.004003856           0.771023011             0.766484084
   7.4543     5      Mn       1      Mn       1        -0.928458793           0.928458799             0.928458793
   7.4543     6      Mn       1      Mn       1         0.006585036           0.771015662             0.766491577
   7.4543     7      Mn       1      Mn       1        -0.008298983           0.771024007             0.766507982
   7.8204     1      Mn       1      Mn       1        -0.953769256           0.953769256             0.953769256
   7.8204     2      Mn       1      Mn       1        -0.002812174           0.764917002             0.759846638
   7.8204     3      Mn       1      Mn       1         0.930353261           0.930353266             0.930353261
   7.8204     4      Mn       1      Mn       1        -0.001180233           0.764914553             0.759863714
   7.8204     5      Mn       1      Mn       1        -0.924917574           0.924917589             0.924917574
   7.8204     6      Mn       1      Mn       1         0.003876407           0.764895564             0.759859476
   7.8204     7      Mn       1      Mn       1        -0.005669421           0.764894979             0.759866967
   8.2044     1      Mn       1      Mn       1        -0.951477391           0.951477391             0.951477391
   8.2044     2      Mn       1      Mn       1        -0.007772693           0.759827373             0.754206943
   8.2044     3      Mn       1      Mn       1         0.926922529           0.926922539             0.926922529
   8.2044     4      Mn       1      Mn       1         0.003589669           0.759797045             0.754200114
   8.2044     5      Mn       1      Mn       1        -0.921222618           0.921222654             0.921222618
   8.2044     6      Mn       1      Mn       1        -0.000763805           0.759755200             0.754176402
   8.2044     7      Mn       1      Mn       1        -0.001114265           0.759740534             0.754172314
   8.6036     1      Mn       1      Mn       1        -0.949082891           0.949082891             0.949082891
   8.6036     2      Mn       1      Mn       1        -0.016743834           0.754674300             0.748706869
   8.6036     3      Mn       1      Mn       1         0.923342738           0.923342759             0.923342738
   8.6036     4      Mn       1      Mn       1         0.012367990           0.754590857             0.748652701
   8.6036     5      Mn       1      Mn       1        -0.917372884           0.917372962             0.917372884
   8.6036     6      Mn       1      Mn       1        -0.009414674           0.754513837             0.748598163
   8.6036     7      Mn       1      Mn       1         0.007450745           0.754476825             0.748573160
   9.0223     1      Mn       1      Mn       1        -0.946576184           0.946576185             0.946576184
   9.0223     2      Mn       1      Mn       1        -0.031989787           0.746211814             0.739087737
   9.0223     3      Mn       1      Mn       1         0.919599836           0.919599885             0.919599836
   9.0223     4      Mn       1      Mn       1         0.027423658           0.746028622             0.738934263
   9.0223     5      Mn       1      Mn       1        -0.913345734           0.913345889             0.913345734
   9.0223     6      Mn       1      Mn       1        -0.024345477           0.745885538             0.738811309
   9.0223     7      Mn       1      Mn       1         0.022296721           0.745806838             0.738743605
   9.4613     1      Mn       1      Mn       1        -0.943934966           0.943934967             0.943934966
   9.4613     2      Mn       1      Mn       1        -0.054081322           0.739233689             0.731358077
   9.4613     3      Mn       1      Mn       1         0.915650457           0.915650557             0.915650457
   9.4613     4      Mn       1      Mn       1         0.049310446           0.738904767             0.731054174
   9.4613     5      Mn       1      Mn       1        -0.909098106           0.909098419             0.909098106
   9.4613     6      Mn       1      Mn       1        -0.046099631           0.738662777             0.730827791
   9.4613     7      Mn       1      Mn       1         0.043960463           0.738523065             0.730694562
   9.9216     1      Mn       1      Mn       1        -0.941170921           0.941170924             0.941170921
   9.9216     2      Mn       1      Mn       1        -0.040740227           0.731123699             0.721803465
   9.9216     3      Mn       1      Mn       1         0.911525005           0.911525217             0.911525005
   9.9216     4      Mn       1      Mn       1         0.035759122           0.730862191             0.721574915
   9.9216     5      Mn       1      Mn       1        -0.904659411           0.904660028             0.904659411
   9.9216     6      Mn       1      Mn       1        -0.032410036           0.730665771             0.721400290
   9.9216     7      Mn       1      Mn       1         0.030177155           0.730554583             0.721300621
  10.4044     1      Mn       1      Mn       1        -0.938264203           0.938264208             0.938264203
  10.4044     2      Mn       1      Mn       1        -0.059564806           0.722198323             0.711223563
  10.4044     3      Mn       1      Mn       1         0.907186767           0.907187180             0.907186767
  10.4044     4      Mn       1      Mn       1         0.054367767           0.721793453             0.710853132
  10.4044     5      Mn       1      Mn       1        -0.899993280           0.899994452             0.899993280
  10.4044     6      Mn       1      Mn       1        -0.050879858           0.721502826             0.710581250
  10.4044     7      Mn       1      Mn       1         0.048550437           0.721330112             0.710416376
  10.9106     1      Mn       1      Mn       1        -0.935201034           0.935201043             0.935201034
  10.9106     2      Mn       1      Mn       1        -0.074558117           0.713946869             0.701578039
  10.9106     3      Mn       1      Mn       1         0.902608940           0.902609732             0.902608940
  10.9106     4      Mn       1      Mn       1         0.069126754           0.713416006             0.701076988
  10.9106     5      Mn       1      Mn       1        -0.895067313           0.895069474             0.895067313
  10.9106     6      Mn       1      Mn       1        -0.065481064           0.713033564             0.700711526
  10.9106     7      Mn       1      Mn       1         0.063046745           0.712803066             0.700487535
  11.4414     1      Mn       1      Mn       1        -0.931992566           0.931992587             0.931992566
  11.4414     2      Mn       1      Mn       1        -0.087011999           0.704953096             0.690572325
  11.4414     3      Mn       1      Mn       1         0.897834957           0.897836458             0.897834957
  11.4414     4      Mn       1      Mn       1         0.081349770           0.704298119             0.689942344
  11.4414     5      Mn       1      Mn       1        -0.889935664           0.889939552             0.889935664
  11.4414     6      Mn       1      Mn       1        -0.077561847           0.703833506             0.689488539
  11.4414     7      Mn       1      Mn       1         0.075027051           0.703549936             0.689207316
  11.9979     1      Mn       1      Mn       1        -0.928628027           0.928628069             0.928628027
  11.9979     2      Mn       1      Mn       1        -0.083743741           0.695738919             0.679249735
  11.9979     3      Mn       1      Mn       1         0.892829920           0.892832623             0.892829920
  11.9979     4      Mn       1      Mn       1         0.077837064           0.695074525             0.678612109
  11.9979     5      Mn       1      Mn       1        -0.884555171           0.884561890             0.884555171
  11.9979     6      Mn       1      Mn       1        -0.073896006           0.694612994             0.678155939
  11.9979     7      Mn       1      Mn       1         0.071253549           0.694330575             0.677873461
  12.5791     1      Mn       1      Mn       1        -0.925098184           0.925098274             0.925098184
  12.5791     2      Mn       1      Mn       1        -0.101933745           0.688621711             0.669616607
  12.5791     3      Mn       1      Mn       1         0.887575952           0.887580768             0.887575952
  12.5791     4      Mn       1      Mn       1         0.095758126           0.687771114             0.668796627
  12.5791     5      Mn       1      Mn       1        -0.878909142           0.878920571             0.878909142
  12.5791     6      Mn       1      Mn       1        -0.091642220           0.687185483             0.668212733
  12.5791     7      Mn       1      Mn       1         0.088880407           0.686818161             0.667845772
  13.1840     1      Mn       1      Mn       1        -0.921415902           0.921416084             0.921415902
  13.1840     2      Mn       1      Mn       1        -0.119627957           0.680793961             0.659281854
  13.1840     3      Mn       1      Mn       1         0.882095598           0.882103911             0.882095598
  13.1840     4      Mn       1      Mn       1         0.113181285           0.679743914             0.658244137
  13.1840     5      Mn       1      Mn       1        -0.873016377           0.873035489             0.873016377
  13.1840     6      Mn       1      Mn       1        -0.108892450           0.679029261             0.657516992
  13.1840     7      Mn       1      Mn       1         0.106010870           0.678577526             0.657055817
  13.8221     1      Mn       1      Mn       1        -0.917522600           0.917522960             0.917522600
  13.8221     2      Mn       1      Mn       1        -0.113716653           0.670251005             0.645115602
  13.8221     3      Mn       1      Mn       1         0.876319793           0.876333802             0.876319793
  13.8221     4      Mn       1      Mn       1         0.106996148           0.669204201             0.644074121
  13.8221     5      Mn       1      Mn       1        -0.866814701           0.866845595             0.866814701
  13.8221     6      Mn       1      Mn       1        -0.102539143           0.668507926             0.643351691
  13.8221     7      Mn       1      Mn       1         0.099537269           0.668063249             0.642890764
  14.4939     1      Mn       1      Mn       1        -0.913422563           0.913423277             0.913422563
  14.4939     2      Mn       1      Mn       1        -0.137184192           0.662914480             0.634449382
  14.4939     3      Mn       1      Mn       1         0.870234904           0.870258263             0.870234904
  14.4939     4      Mn       1      Mn       1         0.130153222           0.661588087             0.633100474
  14.4939     5      Mn       1      Mn       1        -0.860277754           0.860327402             0.860277754
  14.4939     6      Mn       1      Mn       1        -0.125493314           0.660708400             0.632165666
  14.4939     7      Mn       1      Mn       1         0.122355341           0.660139378             0.631564475
  15.1928     1      Mn       1      Mn       1        -0.909140244           0.909141586             0.909140244
  15.1928     2      Mn       1      Mn       1        -0.130044107           0.652741148             0.619952907
  15.1928     3      Mn       1      Mn       1         0.863886368           0.863924066             0.863886368
  15.1928     4      Mn       1      Mn       1         0.122724584           0.651420445             0.618608443
  15.1928     5      Mn       1      Mn       1        -0.853460986           0.853538601             0.853460986
  15.1928     6      Mn       1      Mn       1        -0.117897415           0.650554112             0.617678589
  15.1928     7      Mn       1      Mn       1         0.114632521           0.649993817             0.617082095
  15.9224     1      Mn       1      Mn       1        -0.904643879           0.904646339             0.904643879
  15.9224     2      Mn       1      Mn       1        -0.151299514           0.644105259             0.607245996
  15.9224     3      Mn       1      Mn       1         0.857227306           0.857287094             0.857227306
  15.9224     4      Mn       1      Mn       1         0.143650153           0.642489593             0.605552766
  15.9224     5      Mn       1      Mn       1        -0.846310095           0.846429168             0.846310095
  15.9224     6      Mn       1      Mn       1        -0.138609577           0.641444259             0.604390922
  15.9224     7      Mn       1      Mn       1         0.135198679           0.640760287             0.603641714
  16.6848     1      Mn       1      Mn       1        -0.899946665           0.899951047             0.899946665
  16.6848     2      Mn       1      Mn       1        -0.164449667           0.634630652             0.591718811
  16.6848     3      Mn       1      Mn       1         0.850278033           0.850370817             0.850278033
  16.6848     4      Mn       1      Mn       1         0.156467530           0.632787354             0.589782331
  16.6848     5      Mn       1      Mn       1        -0.838852465           0.839031248             0.838852465
  16.6848     6      Mn       1      Mn       1        -0.151219505           0.631607217             0.588461629
  16.6848     7      Mn       1      Mn       1         0.147661506           0.630827103             0.587602748
  17.4862     1      Mn       1      Mn       1        -0.894993690           0.895001285             0.894993690
  17.4862     2      Mn       1      Mn       1        -0.160700793           0.625550513             0.577359959
  17.4862     3      Mn       1      Mn       1         0.842960230           0.843101835             0.842960230
  17.4862     4      Mn       1      Mn       1         0.152377460           0.623665310             0.575362445
  17.4862     5      Mn       1      Mn       1        -0.831002953           0.831268231             0.831002953
  17.4862     6      Mn       1      Mn       1        -0.146931471           0.622470954             0.574003576
  17.4862     7      Mn       1      Mn       1         0.143230595           0.621681104             0.573121283
  18.3260     1      Mn       1      Mn       1        -0.889778299           0.889791259             0.889778299
  18.3260     2      Mn       1      Mn       1        -0.169848235           0.615697146             0.560280343
  18.3260     3      Mn       1      Mn       1         0.835252625           0.835465711             0.835252625
  18.3260     4      Mn       1      Mn       1         0.161165027           0.613602572             0.558008769
  18.3260     5      Mn       1      Mn       1        -0.822731662           0.823119775             0.822731662
  18.3260     6      Mn       1      Mn       1        -0.155503323           0.612299496             0.556477061
  18.3260     7      Mn       1      Mn       1         0.151644445           0.611430187             0.555480641
  19.2008     1      Mn       1      Mn       1        -0.884318395           0.884339937             0.884318395
  19.2008     2      Mn       1      Mn       1        -0.177728281           0.605269426             0.541656223
  19.2008     3      Mn       1      Mn       1         0.827201083           0.827515376             0.827201083
  19.2008     4      Mn       1      Mn       1         0.168676587           0.602979742             0.539092796
  19.2008     5      Mn       1      Mn       1        -0.814097131           0.814654666             0.814097131
  19.2008     6      Mn       1      Mn       1        -0.162794887           0.601572480             0.537365213
  19.2008     7      Mn       1      Mn       1         0.158775233           0.600620753             0.536235470
  20.1146     1      Mn       1      Mn       1        -0.878602483           0.878637627             0.878602483
  20.1146     2      Mn       1      Mn       1        -0.170656373           0.595538568             0.522715243
  20.1146     3      Mn       1      Mn       1         0.818785522           0.819241618             0.818785522
  20.1146     4      Mn       1      Mn       1         0.161229784           0.593238355             0.520152643
  20.1146     5      Mn       1      Mn       1        -0.805075528           0.805864114             0.805075528
  20.1146     6      Mn       1      Mn       1        -0.155145736           0.591835545             0.518436112
  20.1146     7      Mn       1      Mn       1         0.150971029           0.590888442             0.517317232
  21.0726     1      Mn       1      Mn       1        -0.872578064           0.872633895             0.872578064
  21.0726     2      Mn       1      Mn       1        -0.163794864           0.586430805             0.504599675
  21.0726     3      Mn       1      Mn       1         0.809912427           0.810564996             0.809912427
  21.0726     4      Mn       1      Mn       1         0.153947363           0.584125358             0.501987654
  21.0726     5      Mn       1      Mn       1        -0.795560561           0.796661214             0.795560561
  21.0726     6      Mn       1      Mn       1        -0.147614169           0.582738255             0.500240499
  21.0726     7      Mn       1      Mn       1         0.143258293           0.581796430             0.499098741
  22.0727     1      Mn       1      Mn       1        -0.866251249           0.866338504             0.866251249
  22.0727     2      Mn       1      Mn       1        -0.166613745           0.576448766             0.482999320
  22.0727     3      Mn       1      Mn       1         0.800615991           0.801535765             0.800615991
  22.0727     4      Mn       1      Mn       1         0.156342555           0.574000570             0.480169877
  22.0727     5      Mn       1      Mn       1        -0.785605241           0.787122095             0.785605241
  22.0727     6      Mn       1      Mn       1        -0.149764384           0.572555314             0.478296661
  22.0727     7      Mn       1      Mn       1         0.145227383           0.571563425             0.477068586
  23.1153     1      Mn       1      Mn       1        -0.859615790           0.859749782             0.859615790
  23.1153     2      Mn       1      Mn       1        -0.156099452           0.566995097             0.460904575
  23.1153     3      Mn       1      Mn       1         0.790875777           0.792155394             0.790875777
  23.1153     4      Mn       1      Mn       1         0.145389293           0.564609113             0.458047760
  23.1153     5      Mn       1      Mn       1        -0.775175386           0.777237394             0.775175386
  23.1153     6      Mn       1      Mn       1        -0.138569093           0.563226647             0.456164697
  23.1153     7      Mn       1      Mn       1         0.133843383           0.562273245             0.454931492
  24.2072     1      Mn       1      Mn       1        -0.852628351           0.852831018             0.852628351
  24.2072     2      Mn       1      Mn       1        -0.154542160           0.558782997             0.439501049
  24.2072     3      Mn       1      Mn       1         0.780614528           0.782373143             0.780614528
  24.2072     4      Mn       1      Mn       1         0.143365943           0.556320888             0.436445173
  24.2072     5      Mn       1      Mn       1        -0.764179904           0.766956238             0.764179904
  24.2072     6      Mn       1      Mn       1        -0.136292291           0.554923278             0.434454630
  24.2072     7      Mn       1      Mn       1         0.131369250           0.553953659             0.433144892
  25.3406     1      Mn       1      Mn       1        -0.845315205           0.845615113             0.845315205
  25.3406     2      Mn       1      Mn       1        -0.148171501           0.551211094             0.418680919
  25.3406     3      Mn       1      Mn       1         0.769890708           0.772273954             0.769890708
  25.3406     4      Mn       1      Mn       1         0.136489974           0.548754282             0.415597266
  25.3406     5      Mn       1      Mn       1        -0.752699128           0.756386041             0.752699128
  25.3406     6      Mn       1      Mn       1        -0.129135205           0.547385374             0.413599296
  25.3406     7      Mn       1      Mn       1         0.123999309           0.546424768             0.412284803
  26.5269     1      Mn       1      Mn       1        -0.837624004           0.838062112             0.837624004
  26.5269     2      Mn       1      Mn       1        -0.148467897           0.545054773             0.399889692
  26.5269     3      Mn       1      Mn       1         0.758632958           0.761826824             0.758632958
  26.5269     4      Mn       1      Mn       1         0.136245002           0.542489145             0.396565460
  26.5269     5      Mn       1      Mn       1        -0.740646687           0.745490292             0.740646687
  26.5269     6      Mn       1      Mn       1        -0.128592135           0.541088978             0.394427884
  26.5269     7      Mn       1      Mn       1         0.123229149           0.540098201             0.393020816
  27.7640     1      Mn       1      Mn       1        -0.829541846           0.830170981             0.829541846
  27.7640     2      Mn       1      Mn       1        -0.129728245           0.537277851             0.375563402
  27.7640     3      Mn       1      Mn       1         0.746821028           0.751050643             0.746821028
  27.7640     4      Mn       1      Mn       1         0.116952693           0.534965821             0.372416064
  27.7640     5      Mn       1      Mn       1        -0.728014603           0.734313540             0.728014603
  27.7640     6      Mn       1      Mn       1        -0.109004798           0.533725298             0.370412763
  27.7640     7      Mn       1      Mn       1         0.103408108           0.532855772             0.369100243
  29.0581     1      Mn       1      Mn       1        -0.820999738           0.821893204             0.820999738
  29.0581     2      Mn       1      Mn       1        -0.124283037           0.531707449             0.354207402
  29.0581     3      Mn       1      Mn       1         0.734339114           0.739894041             0.734339114
  29.0581     4      Mn       1      Mn       1         0.110903829           0.529411442             0.350980182
  29.0581     5      Mn       1      Mn       1        -0.714658098           0.722785008             0.714658098
  29.0581     6      Mn       1      Mn       1        -0.102636484           0.528221161             0.348956476
  29.0581     7      Mn       1      Mn       1         0.096791044           0.527377173             0.347636009
  30.3977     1      Mn       1      Mn       1        -0.812079168           0.813327570             0.812079168
  30.3977     2      Mn       1      Mn       1        -0.113070933           0.525673362             0.329676360
  30.3977     3      Mn       1      Mn       1         0.721318543           0.728527005             0.721318543
  30.3977     4      Mn       1      Mn       1         0.099068507           0.523510406             0.326509986
  30.3977     5      Mn       1      Mn       1        -0.700736437           0.711106329             0.700736437
  30.3977     6      Mn       1      Mn       1        -0.090477264           0.522426426             0.324546624
  30.3977     7      Mn       1      Mn       1         0.084368531           0.521653304             0.323277965
  31.7856     1      Mn       1      Mn       1        -0.802721516           0.804441793             0.802721516
  31.7856     2      Mn       1      Mn       1        -0.108055866           0.521288536             0.308501479
  31.7856     3      Mn       1      Mn       1         0.707661703           0.716923728             0.707661703
  31.7856     4      Mn       1      Mn       1         0.093377162           0.519169735             0.305277774
  31.7856     5      Mn       1      Mn       1        -0.686132469           0.699246116             0.686132469
  31.7856     6      Mn       1      Mn       1        -0.084424418           0.518136328             0.303311459
  31.7856     7      Mn       1      Mn       1         0.078028719           0.517396181             0.302048867
  33.2364     1      Mn       1      Mn       1        -0.792793040           0.795140401             0.792793040
  33.2364     2      Mn       1      Mn       1        -0.103649467           0.517025964             0.285644187
  33.2364     3      Mn       1      Mn       1         0.693174616           0.704996017             0.693174616
  33.2364     4      Mn       1      Mn       1         0.088236449           0.514923891             0.282237723
  33.2364     5      Mn       1      Mn       1        -0.670640535           0.687125081             0.670640535
  33.2364     6      Mn       1      Mn       1        -0.078897920           0.513937056             0.280201990
  33.2364     7      Mn       1      Mn       1         0.072200771           0.513230463             0.278906697
  34.7461     1      Mn       1      Mn       1        -0.782336303           0.785504288             0.782336303
  34.7461     2      Mn       1      Mn       1        -0.100118158           0.514254232             0.266875483
  34.7461     3      Mn       1      Mn       1         0.677920844           0.692885373             0.677920844
  34.7461     4      Mn       1      Mn       1         0.083907062           0.512155570             0.263242348
  34.7461     5      Mn       1      Mn       1        -0.654333920           0.674894023             0.654333920
  34.7461     6      Mn       1      Mn       1        -0.074139803           0.511210655             0.261108983
  34.7461     7      Mn       1      Mn       1         0.067105641           0.510524276             0.259756294
  36.3028     1      Mn       1      Mn       1        -0.771314138           0.775542798             0.771314138
  36.3028     2      Mn       1      Mn       1        -0.096642940           0.511677699             0.245931289
  36.3028     3      Mn       1      Mn       1         0.661805737           0.680609300             0.661805737
  36.3028     4      Mn       1      Mn       1         0.079559614           0.509598555             0.242007049
  36.3028     5      Mn       1      Mn       1        -0.637083791           0.662564994             0.637083791
  36.3028     6      Mn       1      Mn       1        -0.069310373           0.508694852             0.239751860
  36.3028     7      Mn       1      Mn       1         0.061910252           0.508036637             0.238325768
  37.9131     1      Mn       1      Mn       1        -0.759678650           0.765263497             0.759678650
  37.9131     2      Mn       1      Mn       1        -0.090862935           0.509217167             0.224436625
  37.9131     3      Mn       1      Mn       1         0.644767746           0.668235065             0.644767746
  37.9131     4      Mn       1      Mn       1         0.072857715           0.507223630             0.220243046
  37.9131     5      Mn       1      Mn       1        -0.618847763           0.650233737             0.618847763
  37.9131     6      Mn       1      Mn       1        -0.062102613           0.506389587             0.217891923
  37.9131     7      Mn       1      Mn       1         0.054312499           0.505789331             0.216434918
  39.5756     1      Mn       1      Mn       1        -0.747355585           0.754665581             0.747355585
  39.5756     2      Mn       1      Mn       1        -0.086868568           0.507330912             0.201968354
  39.5756     3      Mn       1      Mn       1         0.626656531           0.655778459             0.626656531
  39.5756     4      Mn       1      Mn       1         0.067843749           0.505385619             0.197400500
  39.5756     5      Mn       1      Mn       1        -0.599433861           0.637905302             0.599433861
  39.5756     6      Mn       1      Mn       1        -0.056515535           0.504621028             0.194932899
  39.5756     7      Mn       1      Mn       1         0.048292058           0.504066110             0.193435948
  41.2693     1      Mn       1      Mn       1        -0.734344976           0.743819283             0.734344976
  41.2693     2      Mn       1      Mn       1        -0.087484630           0.506110501             0.181140649
  41.2693     3      Mn       1      Mn       1         0.607405924           0.643329216             0.607405924
  41.2693     4      Mn       1      Mn       1         0.067357636           0.504087109             0.175587252
  41.2693     5      Mn       1      Mn       1        -0.578754538           0.625670366             0.578754538
  41.2693     6      Mn       1      Mn       1        -0.055377762           0.503325300             0.172627944
  41.2693     7      Mn       1      Mn       1         0.046671912           0.502766364             0.170846485
  43.0001     1      Mn       1      Mn       1        -0.720461138           0.732653847             0.720461138
  43.0001     2      Mn       1      Mn       1        -0.087868228           0.505194152             0.159780466
  43.0001     3      Mn       1      Mn       1         0.586665907           0.630826350             0.586665907
  43.0001     4      Mn       1      Mn       1         0.066482391           0.503099131             0.152955116
  43.0001     5      Mn       1      Mn       1        -0.556398878           0.613475426             0.556398878
  43.0001     6      Mn       1      Mn       1        -0.053725745           0.502349019             0.149422808
  43.0001     7      Mn       1      Mn       1         0.044472976           0.501806931             0.147359096
  44.7682     1      Mn       1      Mn       1        -0.705607070           0.721173439             0.705607070
  44.7682     2      Mn       1      Mn       1        -0.089536110           0.504668052             0.139622510
  44.7682     3      Mn       1      Mn       1         0.564290732           0.618357751             0.564290732
  44.7682     4      Mn       1      Mn       1         0.066756988           0.502462093             0.130655128
  44.7682     5      Mn       1      Mn       1        -0.532210892           0.601424064             0.532210892
  44.7682     6      Mn       1      Mn       1        -0.053095485           0.501700129             0.126088098
  44.7682     7      Mn       1      Mn       1         0.043222788           0.501150789             0.123455811
  46.5724     1      Mn       1      Mn       1        -0.689659011           0.709384167             0.689659011
  46.5724     2      Mn       1      Mn       1        -0.089261920           0.504219180             0.120466151
  46.5724     3      Mn       1      Mn       1         0.540039338           0.605952273             0.540039338
  46.5724     4      Mn       1      Mn       1         0.064932903           0.501961011             0.108646068
  46.5724     5      Mn       1      Mn       1        -0.505931027           0.589560910             0.505931027
  46.5724     6      Mn       1      Mn       1        -0.050229002           0.501219411             0.102707367
  46.5724     7      Mn       1      Mn       1         0.039647970           0.500696348             0.099376271
  48.3985     1      Mn       1      Mn       1        -0.672847758           0.697521573             0.672847758
  48.3985     2      Mn       1      Mn       1        -0.090770899           0.503963921             0.107360823
  48.3985     3      Mn       1      Mn       1         0.514399680           0.593961200             0.514399680
  48.3985     4      Mn       1      Mn       1         0.064738204           0.501577794             0.091432831
  48.3985     5      Mn       1      Mn       1        -0.478129972           0.578231648             0.478129972
  48.3985     6      Mn       1      Mn       1        -0.048861108           0.500837102             0.083355663
  48.3985     7      Mn       1      Mn       1         0.037502185           0.500331645             0.078879340
  50.2879     1      Mn       1      Mn       1        -0.655247531           0.685672021             0.655247531
  50.2879     2      Mn       1      Mn       1        -0.093573569           0.504000341             0.100882489
  50.2879     3      Mn       1      Mn       1         0.487768280           0.582600506             0.487768280
  50.2879     4      Mn       1      Mn       1         0.065728203           0.501448491             0.080271517
  50.2879     5      Mn       1      Mn       1        -0.449366013           0.567686972             0.449366013
  50.2879     6      Mn       1      Mn       1        -0.048647247           0.500686979             0.069624701
  50.2879     7      Mn       1      Mn       1         0.036487526           0.500173003             0.063712209
  52.2659     1      Mn       1      Mn       1        -0.637075226           0.674001397             0.637075226
  52.2659     2      Mn       1      Mn       1        -0.093891770           0.503864104             0.097186187
  52.2659     3      Mn       1      Mn       1         0.460771306           0.572098976             0.460771306
  52.2659     4      Mn       1      Mn       1         0.064218294           0.501244922             0.072717426
  52.2659     5      Mn       1      Mn       1        -0.420457608           0.558142022             0.420457608
  52.2659     6      Mn       1      Mn       1        -0.046015007           0.500516604             0.059938764
  52.2659     7      Mn       1      Mn       1         0.033071057           0.500040137             0.052911946
  54.3381     1      Mn       1      Mn       1        -0.618417551           0.662583464             0.618417551
  54.3381     2      Mn       1      Mn       1        -0.093733657           0.503766428             0.095197003
  54.3381     3      Mn       1      Mn       1         0.433560074           0.562467182             0.433560074
  54.3381     4      Mn       1      Mn       1         0.062215397           0.501082882             0.067367904
  54.3381     5      Mn       1      Mn       1        -0.391532171           0.549562282             0.391532171
  54.3381     6      Mn       1      Mn       1        -0.042971807           0.500381293             0.052751294
  54.3381     7      Mn       1      Mn       1         0.029273258           0.499938850             0.044818069
  56.5400     1      Mn       1      Mn       1        -0.599288294           0.651431832             0.599288294
  56.5400     2      Mn       1      Mn       1        -0.092718604           0.503594431             0.093437400
  56.5400     3      Mn       1      Mn       1         0.406332710           0.553711547             0.406332710
  56.5400     4      Mn       1      Mn       1         0.059365456           0.500896849             0.062854322
  56.5400     5      Mn       1      Mn       1        -0.362909785           0.541932874             0.362909785
  56.5400     6      Mn       1      Mn       1        -0.039214280           0.500261403             0.046844590
  56.5400     7      Mn       1      Mn       1         0.024806187           0.499868400             0.038323662
  58.8635     1      Mn       1      Mn       1        -0.579839684           0.640642668             0.579839684
  58.8635     2      Mn       1      Mn       1        -0.091755885           0.503439279             0.092105306
  58.8635     3      Mn       1      Mn       1         0.379325182           0.545847221             0.379325182
  58.8635     4      Mn       1      Mn       1         0.056592999           0.500731932             0.059036654
  58.8635     5      Mn       1      Mn       1        -0.334809555           0.535235895             0.334809555
  58.8635     6      Mn       1      Mn       1        -0.035684612           0.500155911             0.041869227
  58.8635     7      Mn       1      Mn       1         0.020614523           0.499825384             0.032920722
  61.3496     1      Mn       1      Mn       1        -0.560017207           0.630175138             0.560017207
  61.3496     2      Mn       1      Mn       1        -0.090513697           0.503300882             0.090683100
  61.3496     3      Mn       1      Mn       1         0.352527271           0.538779844             0.352527271
  61.3496     4      Mn       1      Mn       1         0.053599351           0.500615802             0.055353089
  61.3496     5      Mn       1      Mn       1        -0.307251892           0.529337994             0.307251892
  61.3496     6      Mn       1      Mn       1        -0.032098473           0.500096172             0.037302068
  61.3496     7      Mn       1      Mn       1         0.016429809           0.499809193             0.028205722
  64.0153     1      Mn       1      Mn       1        -0.539954868           0.620123215             0.539954868
  64.0153     2      Mn       1      Mn       1        -0.088801054           0.503132877             0.088888910
  64.0153     3      Mn       1      Mn       1         0.326223243           0.532531454             0.326223243
  64.0153     4      Mn       1      Mn       1         0.050228201           0.500496622             0.051605029
  64.0153     5      Mn       1      Mn       1        -0.280551851           0.524240499             0.280551851
  64.0153     6      Mn       1      Mn       1        -0.028345061           0.500053625             0.033038768
  64.0153     7      Mn       1      Mn       1         0.012154417           0.499820061             0.024140558
  66.8857     1      Mn       1      Mn       1        -0.519700560           0.610483859             0.519700560
  66.8857     2      Mn       1      Mn       1        -0.087181629           0.502984398             0.087230865
  66.8857     3      Mn       1      Mn       1         0.300561158           0.527046652             0.300561158
  66.8857     4      Mn       1      Mn       1         0.047044712           0.500393163             0.048168051
  66.8857     5      Mn       1      Mn       1        -0.254886875           0.519869148             0.254886875
  66.8857     6      Mn       1      Mn       1        -0.025000178           0.500018304             0.029331999
  66.8857     7      Mn       1      Mn       1         0.008371448           0.499830886             0.020848462
  70.0000     1      Mn       1      Mn       1        -0.499291385           0.601274541             0.499291385
  70.0000     2      Mn       1      Mn       1        -0.085309814           0.502853319             0.085339619
  70.0000     3      Mn       1      Mn       1         0.275631459           0.522273473             0.275631459
  70.0000     4      Mn       1      Mn       1         0.043747171           0.500311095             0.044729276
  70.0000     5      Mn       1      Mn       1        -0.230366873           0.516159733             0.230366873
  70.0000     6      Mn       1      Mn       1        -0.021770461           0.499991217             0.025956676
  70.0000     7      Mn       1      Mn       1         0.004793714           0.499852800             0.018248557
