 #written on  1Dec2019 at 17:05:41 
 #-------------------------- MONTECARLO -------------------------------#
 #       M or OP                 P(M)                     P(OP)        #
 #---------------------------------------------------------------------#
 #T=    10.0000
  -0.40000000E+01           0.00000000E+00           0.16875000E-02
  -0.39900000E+01           0.00000000E+00           0.58140625E-01
  -0.39800000E+01           0.00000000E+00           0.24804688E+00
  -0.39700000E+01           0.00000000E+00           0.57507031E+00
  -0.39600000E+01           0.00000000E+00           0.92838281E+00
  -0.39500000E+01           0.00000000E+00           0.13050078E+01
  -0.39400000E+01           0.00000000E+00           0.16721953E+01
  -0.39300000E+01           0.00000000E+00           0.20092344E+01
  -0.39200000E+01           0.00000000E+00           0.22750547E+01
  -0.39100000E+01           0.00000000E+00           0.25029766E+01
  -0.39000000E+01           0.00000000E+00           0.27028672E+01
  -0.38900000E+01           0.00000000E+00           0.28443984E+01
  -0.38800000E+01           0.00000000E+00           0.29337500E+01
  -0.38700000E+01           0.00000000E+00           0.30450781E+01
  -0.38600000E+01           0.00000000E+00           0.30972109E+01
  -0.38500000E+01           0.00000000E+00           0.30501484E+01
  -0.38400000E+01           0.00000000E+00           0.31071875E+01
  -0.38300000E+01           0.00000000E+00           0.30705938E+01
  -0.38200000E+01           0.00000000E+00           0.30500078E+01
  -0.38100000E+01           0.00000000E+00           0.29791797E+01
  -0.38000000E+01           0.00000000E+00           0.29392031E+01
  -0.37900000E+01           0.00000000E+00           0.28856250E+01
  -0.37800000E+01           0.00000000E+00           0.27800156E+01
  -0.37700000E+01           0.00000000E+00           0.26758594E+01
  -0.37600000E+01           0.00000000E+00           0.25863359E+01
  -0.37500000E+01           0.00000000E+00           0.24913750E+01
  -0.37400000E+01           0.00000000E+00           0.23833750E+01
  -0.37300000E+01           0.00000000E+00           0.23001719E+01
  -0.37200000E+01           0.00000000E+00           0.21818359E+01
  -0.37100000E+01           0.00000000E+00           0.20762188E+01
  -0.37000000E+01           0.00000000E+00           0.19885391E+01
  -0.36900000E+01           0.00000000E+00           0.19062578E+01
  -0.36800000E+01           0.00000000E+00           0.17703984E+01
  -0.36700000E+01           0.00000000E+00           0.16807734E+01
  -0.36600000E+01           0.00000000E+00           0.15958438E+01
  -0.36500000E+01           0.00000000E+00           0.15530391E+01
  -0.36400000E+01           0.00000000E+00           0.14507500E+01
  -0.36300000E+01           0.00000000E+00           0.13637031E+01
  -0.36200000E+01           0.00000000E+00           0.12646250E+01
  -0.36100000E+01           0.00000000E+00           0.11832656E+01
  -0.36000000E+01           0.00000000E+00           0.11190000E+01
  -0.35900000E+01           0.00000000E+00           0.10656250E+01
  -0.35800000E+01           0.00000000E+00           0.98846094E+00
  -0.35700000E+01           0.00000000E+00           0.94114844E+00
  -0.35600000E+01           0.00000000E+00           0.86951563E+00
  -0.35500000E+01           0.00000000E+00           0.82909375E+00
  -0.35400000E+01           0.00000000E+00           0.75825000E+00
  -0.35300000E+01           0.00000000E+00           0.74544531E+00
  -0.35200000E+01           0.00000000E+00           0.66721875E+00
  -0.35100000E+01           0.00000000E+00           0.64686719E+00
  -0.35000000E+01           0.00000000E+00           0.61219531E+00
  -0.34900000E+01           0.00000000E+00           0.56336719E+00
  -0.34800000E+01           0.00000000E+00           0.52077344E+00
  -0.34700000E+01           0.00000000E+00           0.48523438E+00
  -0.34600000E+01           0.00000000E+00           0.45155469E+00
  -0.34500000E+01           0.00000000E+00           0.42021094E+00
  -0.34400000E+01           0.00000000E+00           0.39877344E+00
  -0.34300000E+01           0.00000000E+00           0.38557813E+00
  -0.34200000E+01           0.00000000E+00           0.34539844E+00
  -0.34100000E+01           0.00000000E+00           0.32976563E+00
  -0.34000000E+01           0.00000000E+00           0.29739844E+00
  -0.33900000E+01           0.00000000E+00           0.29053125E+00
  -0.33800000E+01           0.00000000E+00           0.26938281E+00
  -0.33700000E+01           0.00000000E+00           0.25389063E+00
  -0.33600000E+01           0.00000000E+00           0.23346094E+00
  -0.33500000E+01           0.00000000E+00           0.20660938E+00
  -0.33400000E+01           0.00000000E+00           0.19588281E+00
  -0.33300000E+01           0.00000000E+00           0.18396875E+00
  -0.33200000E+01           0.00000000E+00           0.18057813E+00
  -0.33100000E+01           0.00000000E+00           0.16525000E+00
  -0.33000000E+01           0.00000000E+00           0.15300781E+00
  -0.32900000E+01           0.00000000E+00           0.13840625E+00
  -0.32800000E+01           0.00000000E+00           0.12107813E+00
  -0.32700000E+01           0.00000000E+00           0.11466406E+00
  -0.32600000E+01           0.00000000E+00           0.11134375E+00
  -0.32500000E+01           0.00000000E+00           0.98257813E-01
  -0.32400000E+01           0.00000000E+00           0.10314844E+00
  -0.32300000E+01           0.00000000E+00           0.91101563E-01
  -0.32200000E+01           0.00000000E+00           0.84523438E-01
  -0.32100000E+01           0.00000000E+00           0.79367188E-01
  -0.32000000E+01           0.00000000E+00           0.76671875E-01
  -0.31900000E+01           0.00000000E+00           0.63164063E-01
  -0.31800000E+01           0.00000000E+00           0.64984375E-01
  -0.31700000E+01           0.00000000E+00           0.57742188E-01
  -0.31600000E+01           0.00000000E+00           0.52382813E-01
  -0.31500000E+01           0.00000000E+00           0.52820313E-01
  -0.31400000E+01           0.00000000E+00           0.44695313E-01
  -0.31300000E+01           0.00000000E+00           0.38992188E-01
  -0.31200000E+01           0.00000000E+00           0.45437500E-01
  -0.31100000E+01           0.00000000E+00           0.35343750E-01
  -0.31000000E+01           0.00000000E+00           0.34695313E-01
  -0.30900000E+01           0.00000000E+00           0.32148438E-01
  -0.30800000E+01           0.00000000E+00           0.31289062E-01
  -0.30700000E+01           0.00000000E+00           0.27453125E-01
  -0.30600000E+01           0.00000000E+00           0.24578125E-01
  -0.30500000E+01           0.00000000E+00           0.21656250E-01
  -0.30400000E+01           0.00000000E+00           0.20843750E-01
  -0.30300000E+01           0.00000000E+00           0.20750000E-01
  -0.30200000E+01           0.00000000E+00           0.20671875E-01
  -0.30100000E+01           0.00000000E+00           0.14593750E-01
  -0.30000000E+01           0.00000000E+00           0.15257813E-01
  -0.29900000E+01           0.00000000E+00           0.15046875E-01
  -0.29800000E+01           0.00000000E+00           0.11500000E-01
  -0.29700000E+01           0.00000000E+00           0.14171875E-01
  -0.29600000E+01           0.00000000E+00           0.10914063E-01
  -0.29500000E+01           0.00000000E+00           0.10726563E-01
  -0.29400000E+01           0.00000000E+00           0.82343750E-02
  -0.29300000E+01           0.00000000E+00           0.66171875E-02
  -0.29200000E+01           0.00000000E+00           0.63125000E-02
  -0.29100000E+01           0.00000000E+00           0.71953125E-02
  -0.29000000E+01           0.00000000E+00           0.58906250E-02
  -0.28900000E+01           0.00000000E+00           0.39765625E-02
  -0.28800000E+01           0.00000000E+00           0.48828125E-02
  -0.28700000E+01           0.00000000E+00           0.39609375E-02
  -0.28600000E+01           0.00000000E+00           0.50312500E-02
  -0.28500000E+01           0.00000000E+00           0.33359375E-02
  -0.28400000E+01           0.00000000E+00           0.43125000E-02
  -0.28300000E+01           0.00000000E+00           0.54687500E-02
  -0.28200000E+01           0.00000000E+00           0.38359375E-02
  -0.28100000E+01           0.00000000E+00           0.29843750E-02
  -0.28000000E+01           0.00000000E+00           0.30781250E-02
  -0.27900000E+01           0.00000000E+00           0.37890625E-02
  -0.27800000E+01           0.00000000E+00           0.22578125E-02
  -0.27700000E+01           0.00000000E+00           0.14609375E-02
  -0.27600000E+01           0.00000000E+00           0.22578125E-02
  -0.27500000E+01           0.00000000E+00           0.35703125E-02
  -0.27400000E+01           0.00000000E+00           0.11250000E-02
  -0.27300000E+01           0.00000000E+00           0.13359375E-02
  -0.27200000E+01           0.00000000E+00           0.15468750E-02
  -0.27100000E+01           0.00000000E+00           0.21406250E-02
  -0.27000000E+01           0.00000000E+00           0.75000000E-03
  -0.26900000E+01           0.00000000E+00           0.17343750E-02
  -0.26800000E+01           0.00000000E+00           0.15000000E-02
  -0.26700000E+01           0.00000000E+00           0.11171875E-02
  -0.26600000E+01           0.00000000E+00           0.14062500E-02
  -0.26500000E+01           0.00000000E+00           0.58593750E-03
  -0.26400000E+01           0.00000000E+00           0.64843750E-03
  -0.26300000E+01           0.00000000E+00           0.38281250E-03
  -0.26200000E+01           0.00000000E+00           0.48437500E-03
  -0.26100000E+01           0.00000000E+00           0.93750000E-03
  -0.26000000E+01           0.00000000E+00           0.10312500E-02
  -0.25900000E+01           0.00000000E+00           0.64843750E-03
  -0.25800000E+01           0.00000000E+00           0.54687500E-03
  -0.25700000E+01           0.00000000E+00           0.67187500E-03
  -0.25600000E+01           0.00000000E+00           0.77343750E-03
  -0.25500000E+01           0.00000000E+00           0.50000000E-03
  -0.25400000E+01           0.00000000E+00           0.26562500E-03
  -0.25300000E+01           0.00000000E+00           0.18750000E-03
  -0.25200000E+01           0.00000000E+00           0.64843750E-03
  -0.25100000E+01           0.00000000E+00           0.17968750E-03
  -0.25000000E+01           0.00000000E+00           0.32812500E-03
  -0.24900000E+01           0.00000000E+00           0.38281250E-03
  -0.24800000E+01           0.00000000E+00           0.31250000E-03
  -0.24700000E+01           0.00000000E+00           0.13281250E-03
  -0.24600000E+01           0.00000000E+00           0.20312500E-03
  -0.24500000E+01           0.00000000E+00           0.31250000E-04
  -0.24400000E+01           0.00000000E+00           0.00000000E+00
  -0.24300000E+01           0.00000000E+00           0.15625000E-03
  -0.24200000E+01           0.00000000E+00           0.20312500E-03
  -0.24100000E+01           0.00000000E+00           0.31250000E-04
  -0.24000000E+01           0.00000000E+00           0.27343750E-03
  -0.23900000E+01           0.00000000E+00           0.00000000E+00
  -0.23800000E+01           0.00000000E+00           0.00000000E+00
  -0.23700000E+01           0.00000000E+00           0.00000000E+00
  -0.23600000E+01           0.00000000E+00           0.00000000E+00
  -0.23500000E+01           0.00000000E+00           0.26562500E-03
  -0.23400000E+01           0.00000000E+00           0.32812500E-03
  -0.23300000E+01           0.00000000E+00           0.78125000E-04
  -0.23200000E+01           0.00000000E+00           0.00000000E+00
  -0.23100000E+01           0.00000000E+00           0.10937500E-03
  -0.23000000E+01           0.00000000E+00           0.00000000E+00
  -0.22900000E+01           0.00000000E+00           0.00000000E+00
  -0.22800000E+01           0.00000000E+00           0.00000000E+00
  -0.22700000E+01           0.00000000E+00           0.00000000E+00
  -0.22600000E+01           0.00000000E+00           0.25781250E-03
  -0.22500000E+01           0.00000000E+00           0.00000000E+00
  -0.22400000E+01           0.00000000E+00           0.00000000E+00
  -0.22300000E+01           0.00000000E+00           0.00000000E+00
  -0.22200000E+01           0.00000000E+00           0.00000000E+00
  -0.22100000E+01           0.00000000E+00           0.00000000E+00
  -0.22000000E+01           0.00000000E+00           0.00000000E+00
  -0.21900000E+01           0.00000000E+00           0.00000000E+00
  -0.21800000E+01           0.00000000E+00           0.00000000E+00
  -0.21700000E+01           0.00000000E+00           0.00000000E+00
  -0.21600000E+01           0.00000000E+00           0.15625000E-04
  -0.21500000E+01           0.00000000E+00           0.00000000E+00
  -0.21400000E+01           0.00000000E+00           0.00000000E+00
  -0.21300000E+01           0.00000000E+00           0.00000000E+00
  -0.21200000E+01           0.00000000E+00           0.00000000E+00
  -0.21100000E+01           0.00000000E+00           0.00000000E+00
  -0.21000000E+01           0.00000000E+00           0.00000000E+00
  -0.20900000E+01           0.00000000E+00           0.00000000E+00
  -0.20800000E+01           0.00000000E+00           0.00000000E+00
  -0.20700000E+01           0.00000000E+00           0.00000000E+00
  -0.20600000E+01           0.00000000E+00           0.00000000E+00
  -0.20500000E+01           0.00000000E+00           0.00000000E+00
  -0.20400000E+01           0.00000000E+00           0.00000000E+00
  -0.20300000E+01           0.00000000E+00           0.00000000E+00
  -0.20200000E+01           0.00000000E+00           0.00000000E+00
  -0.20100000E+01           0.00000000E+00           0.00000000E+00
  -0.20000000E+01           0.00000000E+00           0.00000000E+00
  -0.19900000E+01           0.00000000E+00           0.00000000E+00
  -0.19800000E+01           0.00000000E+00           0.00000000E+00
  -0.19700000E+01           0.00000000E+00           0.00000000E+00
  -0.19600000E+01           0.00000000E+00           0.00000000E+00
  -0.19500000E+01           0.00000000E+00           0.00000000E+00
  -0.19400000E+01           0.00000000E+00           0.00000000E+00
  -0.19300000E+01           0.00000000E+00           0.00000000E+00
  -0.19200000E+01           0.00000000E+00           0.00000000E+00
  -0.19100000E+01           0.00000000E+00           0.00000000E+00
  -0.19000000E+01           0.00000000E+00           0.00000000E+00
  -0.18900000E+01           0.00000000E+00           0.00000000E+00
  -0.18800000E+01           0.00000000E+00           0.00000000E+00
  -0.18700000E+01           0.00000000E+00           0.00000000E+00
  -0.18600000E+01           0.00000000E+00           0.00000000E+00
  -0.18500000E+01           0.00000000E+00           0.00000000E+00
  -0.18400000E+01           0.00000000E+00           0.00000000E+00
  -0.18300000E+01           0.00000000E+00           0.00000000E+00
  -0.18200000E+01           0.00000000E+00           0.00000000E+00
  -0.18100000E+01           0.00000000E+00           0.00000000E+00
  -0.18000000E+01           0.00000000E+00           0.00000000E+00
  -0.17900000E+01           0.00000000E+00           0.00000000E+00
  -0.17800000E+01           0.00000000E+00           0.00000000E+00
  -0.17700000E+01           0.00000000E+00           0.00000000E+00
  -0.17600000E+01           0.00000000E+00           0.00000000E+00
  -0.17500000E+01           0.00000000E+00           0.00000000E+00
  -0.17400000E+01           0.00000000E+00           0.00000000E+00
  -0.17300000E+01           0.00000000E+00           0.00000000E+00
  -0.17200000E+01           0.00000000E+00           0.00000000E+00
  -0.17100000E+01           0.00000000E+00           0.00000000E+00
  -0.17000000E+01           0.00000000E+00           0.00000000E+00
  -0.16900000E+01           0.00000000E+00           0.00000000E+00
  -0.16800000E+01           0.00000000E+00           0.00000000E+00
  -0.16700000E+01           0.00000000E+00           0.00000000E+00
  -0.16600000E+01           0.00000000E+00           0.00000000E+00
  -0.16500000E+01           0.00000000E+00           0.00000000E+00
  -0.16400000E+01           0.00000000E+00           0.00000000E+00
  -0.16300000E+01           0.00000000E+00           0.00000000E+00
  -0.16200000E+01           0.00000000E+00           0.00000000E+00
  -0.16100000E+01           0.00000000E+00           0.00000000E+00
  -0.16000000E+01           0.00000000E+00           0.00000000E+00
  -0.15900000E+01           0.00000000E+00           0.00000000E+00
  -0.15800000E+01           0.00000000E+00           0.00000000E+00
  -0.15700000E+01           0.00000000E+00           0.00000000E+00
  -0.15600000E+01           0.00000000E+00           0.00000000E+00
  -0.15500000E+01           0.00000000E+00           0.00000000E+00
  -0.15400000E+01           0.00000000E+00           0.00000000E+00
  -0.15300000E+01           0.00000000E+00           0.00000000E+00
  -0.15200000E+01           0.00000000E+00           0.00000000E+00
  -0.15100000E+01           0.00000000E+00           0.00000000E+00
  -0.15000000E+01           0.00000000E+00           0.00000000E+00
  -0.14900000E+01           0.00000000E+00           0.00000000E+00
  -0.14800000E+01           0.00000000E+00           0.00000000E+00
  -0.14700000E+01           0.00000000E+00           0.00000000E+00
  -0.14600000E+01           0.00000000E+00           0.00000000E+00
  -0.14500000E+01           0.00000000E+00           0.00000000E+00
  -0.14400000E+01           0.00000000E+00           0.00000000E+00
  -0.14300000E+01           0.00000000E+00           0.00000000E+00
  -0.14200000E+01           0.00000000E+00           0.00000000E+00
  -0.14100000E+01           0.00000000E+00           0.00000000E+00
  -0.14000000E+01           0.00000000E+00           0.00000000E+00
  -0.13900000E+01           0.00000000E+00           0.00000000E+00
  -0.13800000E+01           0.00000000E+00           0.00000000E+00
  -0.13700000E+01           0.00000000E+00           0.00000000E+00
  -0.13600000E+01           0.00000000E+00           0.00000000E+00
  -0.13500000E+01           0.00000000E+00           0.00000000E+00
  -0.13400000E+01           0.00000000E+00           0.00000000E+00
  -0.13300000E+01           0.00000000E+00           0.00000000E+00
  -0.13200000E+01           0.00000000E+00           0.00000000E+00
  -0.13100000E+01           0.00000000E+00           0.00000000E+00
  -0.13000000E+01           0.00000000E+00           0.00000000E+00
  -0.12900000E+01           0.00000000E+00           0.00000000E+00
  -0.12800000E+01           0.00000000E+00           0.00000000E+00
  -0.12700000E+01           0.00000000E+00           0.00000000E+00
  -0.12600000E+01           0.00000000E+00           0.00000000E+00
  -0.12500000E+01           0.00000000E+00           0.00000000E+00
  -0.12400000E+01           0.00000000E+00           0.00000000E+00
  -0.12300000E+01           0.00000000E+00           0.00000000E+00
  -0.12200000E+01           0.00000000E+00           0.00000000E+00
  -0.12100000E+01           0.00000000E+00           0.00000000E+00
  -0.12000000E+01           0.00000000E+00           0.00000000E+00
  -0.11900000E+01           0.00000000E+00           0.00000000E+00
  -0.11800000E+01           0.00000000E+00           0.00000000E+00
  -0.11700000E+01           0.00000000E+00           0.00000000E+00
  -0.11600000E+01           0.00000000E+00           0.00000000E+00
  -0.11500000E+01           0.00000000E+00           0.00000000E+00
  -0.11400000E+01           0.00000000E+00           0.00000000E+00
  -0.11300000E+01           0.00000000E+00           0.00000000E+00
  -0.11200000E+01           0.00000000E+00           0.00000000E+00
  -0.11100000E+01           0.00000000E+00           0.00000000E+00
  -0.11000000E+01           0.00000000E+00           0.00000000E+00
  -0.10900000E+01           0.00000000E+00           0.00000000E+00
  -0.10800000E+01           0.00000000E+00           0.00000000E+00
  -0.10700000E+01           0.00000000E+00           0.00000000E+00
  -0.10600000E+01           0.00000000E+00           0.00000000E+00
  -0.10500000E+01           0.00000000E+00           0.00000000E+00
  -0.10400000E+01           0.00000000E+00           0.00000000E+00
  -0.10300000E+01           0.00000000E+00           0.00000000E+00
  -0.10200000E+01           0.00000000E+00           0.00000000E+00
  -0.10100000E+01           0.00000000E+00           0.00000000E+00
  -0.10000000E+01           0.00000000E+00           0.00000000E+00
  -0.99000000E+00           0.00000000E+00           0.00000000E+00
  -0.98000000E+00           0.00000000E+00           0.00000000E+00
  -0.97000000E+00           0.00000000E+00           0.00000000E+00
  -0.96000000E+00           0.00000000E+00           0.00000000E+00
  -0.95000000E+00           0.00000000E+00           0.00000000E+00
  -0.94000000E+00           0.00000000E+00           0.00000000E+00
  -0.93000000E+00           0.00000000E+00           0.00000000E+00
  -0.92000000E+00           0.00000000E+00           0.00000000E+00
  -0.91000000E+00           0.00000000E+00           0.00000000E+00
  -0.90000000E+00           0.00000000E+00           0.00000000E+00
  -0.89000000E+00           0.00000000E+00           0.00000000E+00
  -0.88000000E+00           0.00000000E+00           0.00000000E+00
  -0.87000000E+00           0.00000000E+00           0.00000000E+00
  -0.86000000E+00           0.00000000E+00           0.00000000E+00
  -0.85000000E+00           0.00000000E+00           0.00000000E+00
  -0.84000000E+00           0.00000000E+00           0.00000000E+00
  -0.83000000E+00           0.00000000E+00           0.00000000E+00
  -0.82000000E+00           0.00000000E+00           0.00000000E+00
  -0.81000000E+00           0.00000000E+00           0.00000000E+00
  -0.80000000E+00           0.00000000E+00           0.00000000E+00
  -0.79000000E+00           0.00000000E+00           0.00000000E+00
  -0.78000000E+00           0.00000000E+00           0.00000000E+00
  -0.77000000E+00           0.00000000E+00           0.00000000E+00
  -0.76000000E+00           0.00000000E+00           0.00000000E+00
  -0.75000000E+00           0.00000000E+00           0.00000000E+00
  -0.74000000E+00           0.00000000E+00           0.00000000E+00
  -0.73000000E+00           0.00000000E+00           0.00000000E+00
  -0.72000000E+00           0.00000000E+00           0.00000000E+00
  -0.71000000E+00           0.00000000E+00           0.00000000E+00
  -0.70000000E+00           0.00000000E+00           0.00000000E+00
  -0.69000000E+00           0.00000000E+00           0.00000000E+00
  -0.68000000E+00           0.00000000E+00           0.00000000E+00
  -0.67000000E+00           0.00000000E+00           0.00000000E+00
  -0.66000000E+00           0.00000000E+00           0.00000000E+00
  -0.65000000E+00           0.00000000E+00           0.00000000E+00
  -0.64000000E+00           0.00000000E+00           0.00000000E+00
  -0.63000000E+00           0.00000000E+00           0.00000000E+00
  -0.62000000E+00           0.00000000E+00           0.00000000E+00
  -0.61000000E+00           0.00000000E+00           0.00000000E+00
  -0.60000000E+00           0.00000000E+00           0.00000000E+00
  -0.59000000E+00           0.00000000E+00           0.00000000E+00
  -0.58000000E+00           0.00000000E+00           0.00000000E+00
  -0.57000000E+00           0.00000000E+00           0.00000000E+00
  -0.56000000E+00           0.00000000E+00           0.00000000E+00
  -0.55000000E+00           0.00000000E+00           0.00000000E+00
  -0.54000000E+00           0.00000000E+00           0.00000000E+00
  -0.53000000E+00           0.00000000E+00           0.00000000E+00
  -0.52000000E+00           0.00000000E+00           0.00000000E+00
  -0.51000000E+00           0.00000000E+00           0.00000000E+00
  -0.50000000E+00           0.00000000E+00           0.00000000E+00
  -0.49000000E+00           0.00000000E+00           0.00000000E+00
  -0.48000000E+00           0.00000000E+00           0.00000000E+00
  -0.47000000E+00           0.00000000E+00           0.00000000E+00
  -0.46000000E+00           0.00000000E+00           0.00000000E+00
  -0.45000000E+00           0.00000000E+00           0.00000000E+00
  -0.44000000E+00           0.00000000E+00           0.00000000E+00
  -0.43000000E+00           0.00000000E+00           0.00000000E+00
  -0.42000000E+00           0.00000000E+00           0.00000000E+00
  -0.41000000E+00           0.00000000E+00           0.00000000E+00
  -0.40000000E+00           0.00000000E+00           0.00000000E+00
  -0.39000000E+00           0.00000000E+00           0.00000000E+00
  -0.38000000E+00           0.00000000E+00           0.00000000E+00
  -0.37000000E+00           0.00000000E+00           0.00000000E+00
  -0.36000000E+00           0.00000000E+00           0.00000000E+00
  -0.35000000E+00           0.00000000E+00           0.00000000E+00
  -0.34000000E+00           0.00000000E+00           0.00000000E+00
  -0.33000000E+00           0.00000000E+00           0.00000000E+00
  -0.32000000E+00           0.00000000E+00           0.00000000E+00
  -0.31000000E+00           0.00000000E+00           0.00000000E+00
  -0.30000000E+00           0.00000000E+00           0.00000000E+00
  -0.29000000E+00           0.00000000E+00           0.00000000E+00
  -0.28000000E+00           0.00000000E+00           0.00000000E+00
  -0.27000000E+00           0.00000000E+00           0.00000000E+00
  -0.26000000E+00           0.00000000E+00           0.00000000E+00
  -0.25000000E+00           0.00000000E+00           0.00000000E+00
  -0.24000000E+00           0.00000000E+00           0.00000000E+00
  -0.23000000E+00           0.00000000E+00           0.00000000E+00
  -0.22000000E+00           0.00000000E+00           0.00000000E+00
  -0.21000000E+00           0.00000000E+00           0.00000000E+00
  -0.20000000E+00           0.00000000E+00           0.00000000E+00
  -0.19000000E+00           0.00000000E+00           0.00000000E+00
  -0.18000000E+00           0.00000000E+00           0.00000000E+00
  -0.17000000E+00           0.00000000E+00           0.00000000E+00
  -0.16000000E+00           0.00000000E+00           0.00000000E+00
  -0.15000000E+00           0.00000000E+00           0.00000000E+00
  -0.14000000E+00           0.00000000E+00           0.00000000E+00
  -0.13000000E+00           0.00000000E+00           0.00000000E+00
  -0.12000000E+00           0.00000000E+00           0.00000000E+00
  -0.11000000E+00           0.00000000E+00           0.00000000E+00
  -0.10000000E+00           0.00000000E+00           0.00000000E+00
  -0.90000000E-01           0.00000000E+00           0.00000000E+00
  -0.80000000E-01           0.00000000E+00           0.00000000E+00
  -0.70000000E-01           0.00000000E+00           0.00000000E+00
  -0.60000000E-01           0.00000000E+00           0.00000000E+00
  -0.50000000E-01           0.00000000E+00           0.00000000E+00
  -0.40000000E-01           0.00000000E+00           0.00000000E+00
  -0.30000000E-01           0.00000000E+00           0.00000000E+00
  -0.20000000E-01           0.00000000E+00           0.00000000E+00
  -0.10000000E-01           0.00000000E+00           0.00000000E+00
   0.00000000E+00           0.78906250E-03           0.00000000E+00
   0.10000000E-01           0.25054688E-01           0.00000000E+00
   0.20000000E-01           0.89156250E-01           0.00000000E+00
   0.30000000E-01           0.19851563E+00           0.00000000E+00
   0.40000000E-01           0.35954688E+00           0.00000000E+00
   0.50000000E-01           0.53440625E+00           0.00000000E+00
   0.60000000E-01           0.77162500E+00           0.00000000E+00
   0.70000000E-01           0.10118125E+01           0.00000000E+00
   0.80000000E-01           0.12804688E+01           0.00000000E+00
   0.90000000E-01           0.15779219E+01           0.00000000E+00
   0.10000000E+00           0.18723906E+01           0.00000000E+00
   0.11000000E+00           0.20940625E+01           0.00000000E+00
   0.12000000E+00           0.23765703E+01           0.00000000E+00
   0.13000000E+00           0.26781250E+01           0.00000000E+00
   0.14000000E+00           0.29240391E+01           0.00000000E+00
   0.15000000E+00           0.31380938E+01           0.00000000E+00
   0.16000000E+00           0.33110859E+01           0.00000000E+00
   0.17000000E+00           0.35428750E+01           0.00000000E+00
   0.18000000E+00           0.35953359E+01           0.00000000E+00
   0.19000000E+00           0.37365703E+01           0.00000000E+00
   0.20000000E+00           0.37761875E+01           0.00000000E+00
   0.21000000E+00           0.38769766E+01           0.00000000E+00
   0.22000000E+00           0.38340859E+01           0.00000000E+00
   0.23000000E+00           0.38314688E+01           0.00000000E+00
   0.24000000E+00           0.37778047E+01           0.00000000E+00
   0.25000000E+00           0.36996406E+01           0.00000000E+00
   0.26000000E+00           0.35412188E+01           0.00000000E+00
   0.27000000E+00           0.34075703E+01           0.00000000E+00
   0.28000000E+00           0.33169453E+01           0.00000000E+00
   0.29000000E+00           0.30794219E+01           0.00000000E+00
   0.30000000E+00           0.28979375E+01           0.00000000E+00
   0.31000000E+00           0.26814844E+01           0.00000000E+00
   0.32000000E+00           0.25242969E+01           0.00000000E+00
   0.33000000E+00           0.23510234E+01           0.00000000E+00
   0.34000000E+00           0.21637891E+01           0.00000000E+00
   0.35000000E+00           0.19755234E+01           0.00000000E+00
   0.36000000E+00           0.17939609E+01           0.00000000E+00
   0.37000000E+00           0.15914609E+01           0.00000000E+00
   0.38000000E+00           0.14287422E+01           0.00000000E+00
   0.39000000E+00           0.13082969E+01           0.00000000E+00
   0.40000000E+00           0.11364297E+01           0.00000000E+00
   0.41000000E+00           0.10076563E+01           0.00000000E+00
   0.42000000E+00           0.88895313E+00           0.00000000E+00
   0.43000000E+00           0.76827344E+00           0.00000000E+00
   0.44000000E+00           0.66835938E+00           0.00000000E+00
   0.45000000E+00           0.57499219E+00           0.00000000E+00
   0.46000000E+00           0.50067187E+00           0.00000000E+00
   0.47000000E+00           0.41714063E+00           0.00000000E+00
   0.48000000E+00           0.36913281E+00           0.00000000E+00
   0.49000000E+00           0.30838281E+00           0.00000000E+00
   0.50000000E+00           0.25425781E+00           0.00000000E+00
   0.51000000E+00           0.21153125E+00           0.00000000E+00
   0.52000000E+00           0.17582813E+00           0.00000000E+00
   0.53000000E+00           0.15122656E+00           0.00000000E+00
   0.54000000E+00           0.11373438E+00           0.00000000E+00
   0.55000000E+00           0.95617188E-01           0.00000000E+00
   0.56000000E+00           0.75664063E-01           0.00000000E+00
   0.57000000E+00           0.60710938E-01           0.00000000E+00
   0.58000000E+00           0.53921875E-01           0.00000000E+00
   0.59000000E+00           0.39601563E-01           0.00000000E+00
   0.60000000E+00           0.34328125E-01           0.00000000E+00
   0.61000000E+00           0.27492188E-01           0.00000000E+00
   0.62000000E+00           0.21164063E-01           0.00000000E+00
   0.63000000E+00           0.15859375E-01           0.00000000E+00
   0.64000000E+00           0.12515625E-01           0.00000000E+00
   0.65000000E+00           0.82968750E-02           0.00000000E+00
   0.66000000E+00           0.73906250E-02           0.00000000E+00
   0.67000000E+00           0.67031250E-02           0.00000000E+00
   0.68000000E+00           0.42187500E-02           0.00000000E+00
   0.69000000E+00           0.32343750E-02           0.00000000E+00
   0.70000000E+00           0.28984375E-02           0.00000000E+00
   0.71000000E+00           0.16171875E-02           0.00000000E+00
   0.72000000E+00           0.16093750E-02           0.00000000E+00
   0.73000000E+00           0.12812500E-02           0.00000000E+00
   0.74000000E+00           0.57031250E-03           0.00000000E+00
   0.75000000E+00           0.10468750E-02           0.00000000E+00
   0.76000000E+00           0.18750000E-03           0.00000000E+00
   0.77000000E+00           0.24218750E-03           0.00000000E+00
   0.78000000E+00           0.29687500E-03           0.00000000E+00
   0.79000000E+00           0.16406250E-03           0.00000000E+00
   0.80000000E+00           0.14843750E-03           0.00000000E+00
   0.81000000E+00           0.10937500E-03           0.00000000E+00
   0.82000000E+00           0.13281250E-03           0.00000000E+00
   0.83000000E+00           0.00000000E+00           0.00000000E+00
   0.84000000E+00           0.15625000E-04           0.00000000E+00
   0.85000000E+00           0.15625000E-04           0.00000000E+00
   0.86000000E+00           0.00000000E+00           0.00000000E+00
   0.87000000E+00           0.46875000E-04           0.00000000E+00
   0.88000000E+00           0.78125000E-05           0.00000000E+00
   0.89000000E+00           0.00000000E+00           0.00000000E+00
   0.90000000E+00           0.00000000E+00           0.00000000E+00
   0.91000000E+00           0.39062500E-04           0.00000000E+00
   0.92000000E+00           0.00000000E+00           0.00000000E+00
   0.93000000E+00           0.00000000E+00           0.00000000E+00
   0.94000000E+00           0.00000000E+00           0.00000000E+00
   0.95000000E+00           0.00000000E+00           0.00000000E+00
   0.96000000E+00           0.00000000E+00           0.00000000E+00
   0.97000000E+00           0.00000000E+00           0.00000000E+00
   0.98000000E+00           0.00000000E+00           0.00000000E+00
   0.99000000E+00           0.00000000E+00           0.00000000E+00
   0.10000000E+01           0.00000000E+00           0.00000000E+00
   0.10100000E+01           0.00000000E+00           0.00000000E+00
   0.10200000E+01           0.00000000E+00           0.00000000E+00
   0.10300000E+01           0.00000000E+00           0.00000000E+00
   0.10400000E+01           0.00000000E+00           0.00000000E+00
   0.10500000E+01           0.00000000E+00           0.00000000E+00
   0.10600000E+01           0.00000000E+00           0.00000000E+00
   0.10700000E+01           0.00000000E+00           0.00000000E+00
   0.10800000E+01           0.00000000E+00           0.00000000E+00
   0.10900000E+01           0.00000000E+00           0.00000000E+00
   0.11000000E+01           0.00000000E+00           0.00000000E+00
   0.11100000E+01           0.00000000E+00           0.00000000E+00
   0.11200000E+01           0.00000000E+00           0.00000000E+00
   0.11300000E+01           0.00000000E+00           0.00000000E+00
   0.11400000E+01           0.00000000E+00           0.00000000E+00
   0.11500000E+01           0.00000000E+00           0.00000000E+00
   0.11600000E+01           0.00000000E+00           0.00000000E+00
   0.11700000E+01           0.00000000E+00           0.00000000E+00
   0.11800000E+01           0.00000000E+00           0.00000000E+00
   0.11900000E+01           0.00000000E+00           0.00000000E+00
   0.12000000E+01           0.00000000E+00           0.00000000E+00
   0.12100000E+01           0.00000000E+00           0.00000000E+00
   0.12200000E+01           0.00000000E+00           0.00000000E+00
   0.12300000E+01           0.00000000E+00           0.00000000E+00
   0.12400000E+01           0.00000000E+00           0.00000000E+00
   0.12500000E+01           0.00000000E+00           0.00000000E+00
   0.12600000E+01           0.00000000E+00           0.00000000E+00
   0.12700000E+01           0.00000000E+00           0.00000000E+00
   0.12800000E+01           0.00000000E+00           0.00000000E+00
   0.12900000E+01           0.00000000E+00           0.00000000E+00
   0.13000000E+01           0.00000000E+00           0.00000000E+00
   0.13100000E+01           0.00000000E+00           0.00000000E+00
   0.13200000E+01           0.00000000E+00           0.00000000E+00
   0.13300000E+01           0.00000000E+00           0.00000000E+00
   0.13400000E+01           0.00000000E+00           0.00000000E+00
   0.13500000E+01           0.00000000E+00           0.00000000E+00
   0.13600000E+01           0.00000000E+00           0.00000000E+00
   0.13700000E+01           0.00000000E+00           0.00000000E+00
   0.13800000E+01           0.00000000E+00           0.00000000E+00
   0.13900000E+01           0.00000000E+00           0.00000000E+00
   0.14000000E+01           0.00000000E+00           0.00000000E+00
   0.14100000E+01           0.00000000E+00           0.00000000E+00
   0.14200000E+01           0.00000000E+00           0.00000000E+00
   0.14300000E+01           0.00000000E+00           0.00000000E+00
   0.14400000E+01           0.00000000E+00           0.00000000E+00
   0.14500000E+01           0.00000000E+00           0.00000000E+00
   0.14600000E+01           0.00000000E+00           0.00000000E+00
   0.14700000E+01           0.00000000E+00           0.00000000E+00
   0.14800000E+01           0.00000000E+00           0.00000000E+00
   0.14900000E+01           0.00000000E+00           0.00000000E+00
   0.15000000E+01           0.00000000E+00           0.00000000E+00
   0.15100000E+01           0.00000000E+00           0.00000000E+00
   0.15200000E+01           0.00000000E+00           0.00000000E+00
   0.15300000E+01           0.00000000E+00           0.00000000E+00
   0.15400000E+01           0.00000000E+00           0.00000000E+00
   0.15500000E+01           0.00000000E+00           0.00000000E+00
   0.15600000E+01           0.00000000E+00           0.00000000E+00
   0.15700000E+01           0.00000000E+00           0.00000000E+00
   0.15800000E+01           0.00000000E+00           0.00000000E+00
   0.15900000E+01           0.00000000E+00           0.00000000E+00
   0.16000000E+01           0.00000000E+00           0.00000000E+00
   0.16100000E+01           0.00000000E+00           0.00000000E+00
   0.16200000E+01           0.00000000E+00           0.00000000E+00
   0.16300000E+01           0.00000000E+00           0.00000000E+00
   0.16400000E+01           0.00000000E+00           0.00000000E+00
   0.16500000E+01           0.00000000E+00           0.00000000E+00
   0.16600000E+01           0.00000000E+00           0.00000000E+00
   0.16700000E+01           0.00000000E+00           0.00000000E+00
   0.16800000E+01           0.00000000E+00           0.00000000E+00
   0.16900000E+01           0.00000000E+00           0.00000000E+00
   0.17000000E+01           0.00000000E+00           0.00000000E+00
   0.17100000E+01           0.00000000E+00           0.00000000E+00
   0.17200000E+01           0.00000000E+00           0.00000000E+00
   0.17300000E+01           0.00000000E+00           0.00000000E+00
   0.17400000E+01           0.00000000E+00           0.00000000E+00
   0.17500000E+01           0.00000000E+00           0.00000000E+00
   0.17600000E+01           0.00000000E+00           0.00000000E+00
   0.17700000E+01           0.00000000E+00           0.00000000E+00
   0.17800000E+01           0.00000000E+00           0.00000000E+00
   0.17900000E+01           0.00000000E+00           0.00000000E+00
   0.18000000E+01           0.00000000E+00           0.00000000E+00
   0.18100000E+01           0.00000000E+00           0.00000000E+00
   0.18200000E+01           0.00000000E+00           0.00000000E+00
   0.18300000E+01           0.00000000E+00           0.00000000E+00
   0.18400000E+01           0.00000000E+00           0.00000000E+00
   0.18500000E+01           0.00000000E+00           0.00000000E+00
   0.18600000E+01           0.00000000E+00           0.00000000E+00
   0.18700000E+01           0.00000000E+00           0.00000000E+00
   0.18800000E+01           0.00000000E+00           0.00000000E+00
   0.18900000E+01           0.00000000E+00           0.00000000E+00
   0.19000000E+01           0.00000000E+00           0.00000000E+00
   0.19100000E+01           0.00000000E+00           0.00000000E+00
   0.19200000E+01           0.00000000E+00           0.00000000E+00
   0.19300000E+01           0.00000000E+00           0.00000000E+00
   0.19400000E+01           0.00000000E+00           0.00000000E+00
   0.19500000E+01           0.00000000E+00           0.00000000E+00
   0.19600000E+01           0.00000000E+00           0.00000000E+00
   0.19700000E+01           0.00000000E+00           0.00000000E+00
   0.19800000E+01           0.00000000E+00           0.00000000E+00
   0.19900000E+01           0.00000000E+00           0.00000000E+00
   0.20000000E+01           0.00000000E+00           0.00000000E+00
   0.20100000E+01           0.00000000E+00           0.00000000E+00
   0.20200000E+01           0.00000000E+00           0.00000000E+00
   0.20300000E+01           0.00000000E+00           0.00000000E+00
   0.20400000E+01           0.00000000E+00           0.00000000E+00
   0.20500000E+01           0.00000000E+00           0.00000000E+00
   0.20600000E+01           0.00000000E+00           0.00000000E+00
   0.20700000E+01           0.00000000E+00           0.00000000E+00
   0.20800000E+01           0.00000000E+00           0.00000000E+00
   0.20900000E+01           0.00000000E+00           0.00000000E+00
   0.21000000E+01           0.00000000E+00           0.00000000E+00
   0.21100000E+01           0.00000000E+00           0.00000000E+00
   0.21200000E+01           0.00000000E+00           0.00000000E+00
   0.21300000E+01           0.00000000E+00           0.00000000E+00
   0.21400000E+01           0.00000000E+00           0.00000000E+00
   0.21500000E+01           0.00000000E+00           0.00000000E+00
   0.21600000E+01           0.00000000E+00           0.00000000E+00
   0.21700000E+01           0.00000000E+00           0.00000000E+00
   0.21800000E+01           0.00000000E+00           0.00000000E+00
   0.21900000E+01           0.00000000E+00           0.00000000E+00
   0.22000000E+01           0.00000000E+00           0.00000000E+00
   0.22100000E+01           0.00000000E+00           0.00000000E+00
   0.22200000E+01           0.00000000E+00           0.00000000E+00
   0.22300000E+01           0.00000000E+00           0.00000000E+00
   0.22400000E+01           0.00000000E+00           0.00000000E+00
   0.22500000E+01           0.00000000E+00           0.00000000E+00
   0.22600000E+01           0.00000000E+00           0.00000000E+00
   0.22700000E+01           0.00000000E+00           0.00000000E+00
   0.22800000E+01           0.00000000E+00           0.00000000E+00
   0.22900000E+01           0.00000000E+00           0.00000000E+00
   0.23000000E+01           0.00000000E+00           0.00000000E+00
   0.23100000E+01           0.00000000E+00           0.00000000E+00
   0.23200000E+01           0.00000000E+00           0.00000000E+00
   0.23300000E+01           0.00000000E+00           0.00000000E+00
   0.23400000E+01           0.00000000E+00           0.00000000E+00
   0.23500000E+01           0.00000000E+00           0.00000000E+00
   0.23600000E+01           0.00000000E+00           0.00000000E+00
   0.23700000E+01           0.00000000E+00           0.00000000E+00
   0.23800000E+01           0.00000000E+00           0.00000000E+00
   0.23900000E+01           0.00000000E+00           0.00000000E+00
   0.24000000E+01           0.00000000E+00           0.00000000E+00
   0.24100000E+01           0.00000000E+00           0.00000000E+00
   0.24200000E+01           0.00000000E+00           0.00000000E+00
   0.24300000E+01           0.00000000E+00           0.00000000E+00
   0.24400000E+01           0.00000000E+00           0.00000000E+00
   0.24500000E+01           0.00000000E+00           0.00000000E+00
   0.24600000E+01           0.00000000E+00           0.00000000E+00
   0.24700000E+01           0.00000000E+00           0.00000000E+00
   0.24800000E+01           0.00000000E+00           0.00000000E+00
   0.24900000E+01           0.00000000E+00           0.00000000E+00
   0.25000000E+01           0.00000000E+00           0.00000000E+00
   0.25100000E+01           0.00000000E+00           0.00000000E+00
   0.25200000E+01           0.00000000E+00           0.00000000E+00
   0.25300000E+01           0.00000000E+00           0.00000000E+00
   0.25400000E+01           0.00000000E+00           0.00000000E+00
   0.25500000E+01           0.00000000E+00           0.00000000E+00
   0.25600000E+01           0.00000000E+00           0.00000000E+00
   0.25700000E+01           0.00000000E+00           0.00000000E+00
   0.25800000E+01           0.00000000E+00           0.00000000E+00
   0.25900000E+01           0.00000000E+00           0.00000000E+00
   0.26000000E+01           0.00000000E+00           0.00000000E+00
   0.26100000E+01           0.00000000E+00           0.00000000E+00
   0.26200000E+01           0.00000000E+00           0.00000000E+00
   0.26300000E+01           0.00000000E+00           0.00000000E+00
   0.26400000E+01           0.00000000E+00           0.00000000E+00
   0.26500000E+01           0.00000000E+00           0.00000000E+00
   0.26600000E+01           0.00000000E+00           0.00000000E+00
   0.26700000E+01           0.00000000E+00           0.00000000E+00
   0.26800000E+01           0.00000000E+00           0.00000000E+00
   0.26900000E+01           0.00000000E+00           0.00000000E+00
   0.27000000E+01           0.00000000E+00           0.00000000E+00
   0.27100000E+01           0.00000000E+00           0.00000000E+00
   0.27200000E+01           0.00000000E+00           0.00000000E+00
   0.27300000E+01           0.00000000E+00           0.00000000E+00
   0.27400000E+01           0.00000000E+00           0.00000000E+00
   0.27500000E+01           0.00000000E+00           0.00000000E+00
   0.27600000E+01           0.00000000E+00           0.00000000E+00
   0.27700000E+01           0.00000000E+00           0.00000000E+00
   0.27800000E+01           0.00000000E+00           0.00000000E+00
   0.27900000E+01           0.00000000E+00           0.00000000E+00
   0.28000000E+01           0.00000000E+00           0.00000000E+00
   0.28100000E+01           0.00000000E+00           0.00000000E+00
   0.28200000E+01           0.00000000E+00           0.00000000E+00
   0.28300000E+01           0.00000000E+00           0.00000000E+00
   0.28400000E+01           0.00000000E+00           0.00000000E+00
   0.28500000E+01           0.00000000E+00           0.00000000E+00
   0.28600000E+01           0.00000000E+00           0.00000000E+00
   0.28700000E+01           0.00000000E+00           0.00000000E+00
   0.28800000E+01           0.00000000E+00           0.00000000E+00
   0.28900000E+01           0.00000000E+00           0.00000000E+00
   0.29000000E+01           0.00000000E+00           0.00000000E+00
   0.29100000E+01           0.00000000E+00           0.00000000E+00
   0.29200000E+01           0.00000000E+00           0.00000000E+00
   0.29300000E+01           0.00000000E+00           0.00000000E+00
   0.29400000E+01           0.00000000E+00           0.00000000E+00
   0.29500000E+01           0.00000000E+00           0.00000000E+00
   0.29600000E+01           0.00000000E+00           0.00000000E+00
   0.29700000E+01           0.00000000E+00           0.00000000E+00
   0.29800000E+01           0.00000000E+00           0.00000000E+00
   0.29900000E+01           0.00000000E+00           0.00000000E+00
   0.30000000E+01           0.00000000E+00           0.00000000E+00
   0.30100000E+01           0.00000000E+00           0.00000000E+00
   0.30200000E+01           0.00000000E+00           0.00000000E+00
   0.30300000E+01           0.00000000E+00           0.00000000E+00
   0.30400000E+01           0.00000000E+00           0.00000000E+00
   0.30500000E+01           0.00000000E+00           0.00000000E+00
   0.30600000E+01           0.00000000E+00           0.00000000E+00
   0.30700000E+01           0.00000000E+00           0.00000000E+00
   0.30800000E+01           0.00000000E+00           0.00000000E+00
   0.30900000E+01           0.00000000E+00           0.00000000E+00
   0.31000000E+01           0.00000000E+00           0.00000000E+00
   0.31100000E+01           0.00000000E+00           0.00000000E+00
   0.31200000E+01           0.00000000E+00           0.00000000E+00
   0.31300000E+01           0.00000000E+00           0.00000000E+00
   0.31400000E+01           0.00000000E+00           0.00000000E+00
   0.31500000E+01           0.00000000E+00           0.00000000E+00
   0.31600000E+01           0.00000000E+00           0.00000000E+00
   0.31700000E+01           0.00000000E+00           0.00000000E+00
   0.31800000E+01           0.00000000E+00           0.00000000E+00
   0.31900000E+01           0.00000000E+00           0.00000000E+00
   0.32000000E+01           0.00000000E+00           0.00000000E+00
   0.32100000E+01           0.00000000E+00           0.00000000E+00
   0.32200000E+01           0.00000000E+00           0.00000000E+00
   0.32300000E+01           0.00000000E+00           0.00000000E+00
   0.32400000E+01           0.00000000E+00           0.00000000E+00
   0.32500000E+01           0.00000000E+00           0.00000000E+00
   0.32600000E+01           0.00000000E+00           0.00000000E+00
   0.32700000E+01           0.00000000E+00           0.00000000E+00
   0.32800000E+01           0.00000000E+00           0.00000000E+00
   0.32900000E+01           0.00000000E+00           0.00000000E+00
   0.33000000E+01           0.00000000E+00           0.00000000E+00
   0.33100000E+01           0.00000000E+00           0.00000000E+00
   0.33200000E+01           0.00000000E+00           0.00000000E+00
   0.33300000E+01           0.00000000E+00           0.00000000E+00
   0.33400000E+01           0.00000000E+00           0.00000000E+00
   0.33500000E+01           0.00000000E+00           0.00000000E+00
   0.33600000E+01           0.00000000E+00           0.00000000E+00
   0.33700000E+01           0.00000000E+00           0.00000000E+00
   0.33800000E+01           0.00000000E+00           0.00000000E+00
   0.33900000E+01           0.00000000E+00           0.00000000E+00
   0.34000000E+01           0.00000000E+00           0.00000000E+00
   0.34100000E+01           0.00000000E+00           0.00000000E+00
   0.34200000E+01           0.00000000E+00           0.00000000E+00
   0.34300000E+01           0.00000000E+00           0.00000000E+00
   0.34400000E+01           0.00000000E+00           0.00000000E+00
   0.34500000E+01           0.00000000E+00           0.00000000E+00
   0.34600000E+01           0.00000000E+00           0.00000000E+00
   0.34700000E+01           0.00000000E+00           0.00000000E+00
   0.34800000E+01           0.00000000E+00           0.00000000E+00
   0.34900000E+01           0.00000000E+00           0.00000000E+00
   0.35000000E+01           0.00000000E+00           0.00000000E+00
   0.35100000E+01           0.00000000E+00           0.00000000E+00
   0.35200000E+01           0.00000000E+00           0.00000000E+00
   0.35300000E+01           0.00000000E+00           0.00000000E+00
   0.35400000E+01           0.00000000E+00           0.00000000E+00
   0.35500000E+01           0.00000000E+00           0.00000000E+00
   0.35600000E+01           0.00000000E+00           0.00000000E+00
   0.35700000E+01           0.00000000E+00           0.00000000E+00
   0.35800000E+01           0.00000000E+00           0.00000000E+00
   0.35900000E+01           0.00000000E+00           0.00000000E+00
   0.36000000E+01           0.00000000E+00           0.00000000E+00
   0.36100000E+01           0.00000000E+00           0.00000000E+00
   0.36200000E+01           0.00000000E+00           0.00000000E+00
   0.36300000E+01           0.00000000E+00           0.00000000E+00
   0.36400000E+01           0.00000000E+00           0.00000000E+00
   0.36500000E+01           0.00000000E+00           0.00000000E+00
   0.36600000E+01           0.00000000E+00           0.00000000E+00
   0.36700000E+01           0.00000000E+00           0.00000000E+00
   0.36800000E+01           0.00000000E+00           0.00000000E+00
   0.36900000E+01           0.00000000E+00           0.00000000E+00
   0.37000000E+01           0.00000000E+00           0.00000000E+00
   0.37100000E+01           0.00000000E+00           0.00000000E+00
   0.37200000E+01           0.00000000E+00           0.00000000E+00
   0.37300000E+01           0.00000000E+00           0.00000000E+00
   0.37400000E+01           0.00000000E+00           0.00000000E+00
   0.37500000E+01           0.00000000E+00           0.00000000E+00
   0.37600000E+01           0.00000000E+00           0.00000000E+00
   0.37700000E+01           0.00000000E+00           0.00000000E+00
   0.37800000E+01           0.00000000E+00           0.00000000E+00
   0.37900000E+01           0.00000000E+00           0.00000000E+00
   0.38000000E+01           0.00000000E+00           0.00000000E+00
   0.38100000E+01           0.00000000E+00           0.00000000E+00
   0.38200000E+01           0.00000000E+00           0.00000000E+00
   0.38300000E+01           0.00000000E+00           0.00000000E+00
   0.38400000E+01           0.00000000E+00           0.00000000E+00
   0.38500000E+01           0.00000000E+00           0.00000000E+00
   0.38600000E+01           0.00000000E+00           0.00000000E+00
   0.38700000E+01           0.00000000E+00           0.00000000E+00
   0.38800000E+01           0.00000000E+00           0.00000000E+00
   0.38900000E+01           0.00000000E+00           0.00000000E+00
   0.39000000E+01           0.00000000E+00           0.00000000E+00
   0.39100000E+01           0.00000000E+00           0.00000000E+00
   0.39200000E+01           0.00000000E+00           0.00000000E+00
   0.39300000E+01           0.00000000E+00           0.00000000E+00
   0.39400000E+01           0.00000000E+00           0.00000000E+00
   0.39500000E+01           0.00000000E+00           0.00000000E+00
   0.39600000E+01           0.00000000E+00           0.00000000E+00
   0.39700000E+01           0.00000000E+00           0.00000000E+00
   0.39800000E+01           0.00000000E+00           0.00000000E+00
   0.39900000E+01           0.00000000E+00           0.00000000E+00
   0.40000000E+01           0.00000000E+00           0.00000000E+00
 #T=    11.1111
  -0.40000000E+01           0.00000000E+00           0.00000000E+00
  -0.39900000E+01           0.00000000E+00           0.00000000E+00
  -0.39800000E+01           0.00000000E+00           0.00000000E+00
  -0.39700000E+01           0.00000000E+00           0.00000000E+00
  -0.39600000E+01           0.00000000E+00           0.00000000E+00
  -0.39500000E+01           0.00000000E+00           0.00000000E+00
  -0.39400000E+01           0.00000000E+00           0.00000000E+00
  -0.39300000E+01           0.00000000E+00           0.00000000E+00
  -0.39200000E+01           0.00000000E+00           0.00000000E+00
  -0.39100000E+01           0.00000000E+00           0.00000000E+00
  -0.39000000E+01           0.00000000E+00           0.00000000E+00
  -0.38900000E+01           0.00000000E+00           0.00000000E+00
  -0.38800000E+01           0.00000000E+00           0.00000000E+00
  -0.38700000E+01           0.00000000E+00           0.00000000E+00
  -0.38600000E+01           0.00000000E+00           0.00000000E+00
  -0.38500000E+01           0.00000000E+00           0.00000000E+00
  -0.38400000E+01           0.00000000E+00           0.00000000E+00
  -0.38300000E+01           0.00000000E+00           0.00000000E+00
  -0.38200000E+01           0.00000000E+00           0.00000000E+00
  -0.38100000E+01           0.00000000E+00           0.00000000E+00
  -0.38000000E+01           0.00000000E+00           0.00000000E+00
  -0.37900000E+01           0.00000000E+00           0.00000000E+00
  -0.37800000E+01           0.00000000E+00           0.00000000E+00
  -0.37700000E+01           0.00000000E+00           0.00000000E+00
  -0.37600000E+01           0.00000000E+00           0.00000000E+00
  -0.37500000E+01           0.00000000E+00           0.00000000E+00
  -0.37400000E+01           0.00000000E+00           0.00000000E+00
  -0.37300000E+01           0.00000000E+00           0.00000000E+00
  -0.37200000E+01           0.00000000E+00           0.00000000E+00
  -0.37100000E+01           0.00000000E+00           0.00000000E+00
  -0.37000000E+01           0.00000000E+00           0.00000000E+00
  -0.36900000E+01           0.00000000E+00           0.00000000E+00
  -0.36800000E+01           0.00000000E+00           0.00000000E+00
  -0.36700000E+01           0.00000000E+00           0.00000000E+00
  -0.36600000E+01           0.00000000E+00           0.00000000E+00
  -0.36500000E+01           0.00000000E+00           0.00000000E+00
  -0.36400000E+01           0.00000000E+00           0.00000000E+00
  -0.36300000E+01           0.00000000E+00           0.00000000E+00
  -0.36200000E+01           0.00000000E+00           0.00000000E+00
  -0.36100000E+01           0.00000000E+00           0.00000000E+00
  -0.36000000E+01           0.00000000E+00           0.00000000E+00
  -0.35900000E+01           0.00000000E+00           0.00000000E+00
  -0.35800000E+01           0.00000000E+00           0.00000000E+00
  -0.35700000E+01           0.00000000E+00           0.00000000E+00
  -0.35600000E+01           0.00000000E+00           0.00000000E+00
  -0.35500000E+01           0.00000000E+00           0.00000000E+00
  -0.35400000E+01           0.00000000E+00           0.00000000E+00
  -0.35300000E+01           0.00000000E+00           0.00000000E+00
  -0.35200000E+01           0.00000000E+00           0.00000000E+00
  -0.35100000E+01           0.00000000E+00           0.00000000E+00
  -0.35000000E+01           0.00000000E+00           0.00000000E+00
  -0.34900000E+01           0.00000000E+00           0.00000000E+00
  -0.34800000E+01           0.00000000E+00           0.00000000E+00
  -0.34700000E+01           0.00000000E+00           0.00000000E+00
  -0.34600000E+01           0.00000000E+00           0.00000000E+00
  -0.34500000E+01           0.00000000E+00           0.00000000E+00
  -0.34400000E+01           0.00000000E+00           0.00000000E+00
  -0.34300000E+01           0.00000000E+00           0.00000000E+00
  -0.34200000E+01           0.00000000E+00           0.00000000E+00
  -0.34100000E+01           0.00000000E+00           0.00000000E+00
  -0.34000000E+01           0.00000000E+00           0.00000000E+00
  -0.33900000E+01           0.00000000E+00           0.00000000E+00
  -0.33800000E+01           0.00000000E+00           0.00000000E+00
  -0.33700000E+01           0.00000000E+00           0.00000000E+00
  -0.33600000E+01           0.00000000E+00           0.00000000E+00
  -0.33500000E+01           0.00000000E+00           0.00000000E+00
  -0.33400000E+01           0.00000000E+00           0.00000000E+00
  -0.33300000E+01           0.00000000E+00           0.00000000E+00
  -0.33200000E+01           0.00000000E+00           0.00000000E+00
  -0.33100000E+01           0.00000000E+00           0.00000000E+00
  -0.33000000E+01           0.00000000E+00           0.00000000E+00
  -0.32900000E+01           0.00000000E+00           0.00000000E+00
  -0.32800000E+01           0.00000000E+00           0.00000000E+00
  -0.32700000E+01           0.00000000E+00           0.00000000E+00
  -0.32600000E+01           0.00000000E+00           0.00000000E+00
  -0.32500000E+01           0.00000000E+00           0.00000000E+00
  -0.32400000E+01           0.00000000E+00           0.00000000E+00
  -0.32300000E+01           0.00000000E+00           0.00000000E+00
  -0.32200000E+01           0.00000000E+00           0.00000000E+00
  -0.32100000E+01           0.00000000E+00           0.00000000E+00
  -0.32000000E+01           0.00000000E+00           0.00000000E+00
  -0.31900000E+01           0.00000000E+00           0.00000000E+00
  -0.31800000E+01           0.00000000E+00           0.00000000E+00
  -0.31700000E+01           0.00000000E+00           0.00000000E+00
  -0.31600000E+01           0.00000000E+00           0.00000000E+00
  -0.31500000E+01           0.00000000E+00           0.00000000E+00
  -0.31400000E+01           0.00000000E+00           0.00000000E+00
  -0.31300000E+01           0.00000000E+00           0.00000000E+00
  -0.31200000E+01           0.00000000E+00           0.00000000E+00
  -0.31100000E+01           0.00000000E+00           0.00000000E+00
  -0.31000000E+01           0.00000000E+00           0.00000000E+00
  -0.30900000E+01           0.00000000E+00           0.00000000E+00
  -0.30800000E+01           0.00000000E+00           0.00000000E+00
  -0.30700000E+01           0.00000000E+00           0.00000000E+00
  -0.30600000E+01           0.00000000E+00           0.00000000E+00
  -0.30500000E+01           0.00000000E+00           0.00000000E+00
  -0.30400000E+01           0.00000000E+00           0.00000000E+00
  -0.30300000E+01           0.00000000E+00           0.00000000E+00
  -0.30200000E+01           0.00000000E+00           0.00000000E+00
  -0.30100000E+01           0.00000000E+00           0.00000000E+00
  -0.30000000E+01           0.00000000E+00           0.00000000E+00
  -0.29900000E+01           0.00000000E+00           0.00000000E+00
  -0.29800000E+01           0.00000000E+00           0.00000000E+00
  -0.29700000E+01           0.00000000E+00           0.00000000E+00
  -0.29600000E+01           0.00000000E+00           0.00000000E+00
  -0.29500000E+01           0.00000000E+00           0.00000000E+00
  -0.29400000E+01           0.00000000E+00           0.00000000E+00
  -0.29300000E+01           0.00000000E+00           0.00000000E+00
  -0.29200000E+01           0.00000000E+00           0.00000000E+00
  -0.29100000E+01           0.00000000E+00           0.00000000E+00
  -0.29000000E+01           0.00000000E+00           0.00000000E+00
  -0.28900000E+01           0.00000000E+00           0.00000000E+00
  -0.28800000E+01           0.00000000E+00           0.00000000E+00
  -0.28700000E+01           0.00000000E+00           0.00000000E+00
  -0.28600000E+01           0.00000000E+00           0.00000000E+00
  -0.28500000E+01           0.00000000E+00           0.00000000E+00
  -0.28400000E+01           0.00000000E+00           0.00000000E+00
  -0.28300000E+01           0.00000000E+00           0.00000000E+00
  -0.28200000E+01           0.00000000E+00           0.00000000E+00
  -0.28100000E+01           0.00000000E+00           0.00000000E+00
  -0.28000000E+01           0.00000000E+00           0.00000000E+00
  -0.27900000E+01           0.00000000E+00           0.00000000E+00
  -0.27800000E+01           0.00000000E+00           0.00000000E+00
  -0.27700000E+01           0.00000000E+00           0.00000000E+00
  -0.27600000E+01           0.00000000E+00           0.00000000E+00
  -0.27500000E+01           0.00000000E+00           0.00000000E+00
  -0.27400000E+01           0.00000000E+00           0.00000000E+00
  -0.27300000E+01           0.00000000E+00           0.00000000E+00
  -0.27200000E+01           0.00000000E+00           0.00000000E+00
  -0.27100000E+01           0.00000000E+00           0.00000000E+00
  -0.27000000E+01           0.00000000E+00           0.00000000E+00
  -0.26900000E+01           0.00000000E+00           0.00000000E+00
  -0.26800000E+01           0.00000000E+00           0.00000000E+00
  -0.26700000E+01           0.00000000E+00           0.00000000E+00
  -0.26600000E+01           0.00000000E+00           0.00000000E+00
  -0.26500000E+01           0.00000000E+00           0.00000000E+00
  -0.26400000E+01           0.00000000E+00           0.00000000E+00
  -0.26300000E+01           0.00000000E+00           0.00000000E+00
  -0.26200000E+01           0.00000000E+00           0.00000000E+00
  -0.26100000E+01           0.00000000E+00           0.00000000E+00
  -0.26000000E+01           0.00000000E+00           0.00000000E+00
  -0.25900000E+01           0.00000000E+00           0.00000000E+00
  -0.25800000E+01           0.00000000E+00           0.00000000E+00
  -0.25700000E+01           0.00000000E+00           0.00000000E+00
  -0.25600000E+01           0.00000000E+00           0.00000000E+00
  -0.25500000E+01           0.00000000E+00           0.00000000E+00
  -0.25400000E+01           0.00000000E+00           0.00000000E+00
  -0.25300000E+01           0.00000000E+00           0.00000000E+00
  -0.25200000E+01           0.00000000E+00           0.00000000E+00
  -0.25100000E+01           0.00000000E+00           0.00000000E+00
  -0.25000000E+01           0.00000000E+00           0.00000000E+00
  -0.24900000E+01           0.00000000E+00           0.00000000E+00
  -0.24800000E+01           0.00000000E+00           0.00000000E+00
  -0.24700000E+01           0.00000000E+00           0.00000000E+00
  -0.24600000E+01           0.00000000E+00           0.00000000E+00
  -0.24500000E+01           0.00000000E+00           0.00000000E+00
  -0.24400000E+01           0.00000000E+00           0.00000000E+00
  -0.24300000E+01           0.00000000E+00           0.00000000E+00
  -0.24200000E+01           0.00000000E+00           0.00000000E+00
  -0.24100000E+01           0.00000000E+00           0.00000000E+00
  -0.24000000E+01           0.00000000E+00           0.00000000E+00
  -0.23900000E+01           0.00000000E+00           0.00000000E+00
  -0.23800000E+01           0.00000000E+00           0.00000000E+00
  -0.23700000E+01           0.00000000E+00           0.00000000E+00
  -0.23600000E+01           0.00000000E+00           0.00000000E+00
  -0.23500000E+01           0.00000000E+00           0.00000000E+00
  -0.23400000E+01           0.00000000E+00           0.00000000E+00
  -0.23300000E+01           0.00000000E+00           0.00000000E+00
  -0.23200000E+01           0.00000000E+00           0.00000000E+00
  -0.23100000E+01           0.00000000E+00           0.00000000E+00
  -0.23000000E+01           0.00000000E+00           0.00000000E+00
  -0.22900000E+01           0.00000000E+00           0.00000000E+00
  -0.22800000E+01           0.00000000E+00           0.00000000E+00
  -0.22700000E+01           0.00000000E+00           0.00000000E+00
  -0.22600000E+01           0.00000000E+00           0.00000000E+00
  -0.22500000E+01           0.00000000E+00           0.00000000E+00
  -0.22400000E+01           0.00000000E+00           0.00000000E+00
  -0.22300000E+01           0.00000000E+00           0.00000000E+00
  -0.22200000E+01           0.00000000E+00           0.00000000E+00
  -0.22100000E+01           0.00000000E+00           0.00000000E+00
  -0.22000000E+01           0.00000000E+00           0.00000000E+00
  -0.21900000E+01           0.00000000E+00           0.00000000E+00
  -0.21800000E+01           0.00000000E+00           0.00000000E+00
  -0.21700000E+01           0.00000000E+00           0.00000000E+00
  -0.21600000E+01           0.00000000E+00           0.00000000E+00
  -0.21500000E+01           0.00000000E+00           0.00000000E+00
  -0.21400000E+01           0.00000000E+00           0.00000000E+00
  -0.21300000E+01           0.00000000E+00           0.00000000E+00
  -0.21200000E+01           0.00000000E+00           0.00000000E+00
  -0.21100000E+01           0.00000000E+00           0.00000000E+00
  -0.21000000E+01           0.00000000E+00           0.00000000E+00
  -0.20900000E+01           0.00000000E+00           0.00000000E+00
  -0.20800000E+01           0.00000000E+00           0.00000000E+00
  -0.20700000E+01           0.00000000E+00           0.00000000E+00
  -0.20600000E+01           0.00000000E+00           0.00000000E+00
  -0.20500000E+01           0.00000000E+00           0.00000000E+00
  -0.20400000E+01           0.00000000E+00           0.00000000E+00
  -0.20300000E+01           0.00000000E+00           0.00000000E+00
  -0.20200000E+01           0.00000000E+00           0.00000000E+00
  -0.20100000E+01           0.00000000E+00           0.00000000E+00
  -0.20000000E+01           0.00000000E+00           0.00000000E+00
  -0.19900000E+01           0.00000000E+00           0.00000000E+00
  -0.19800000E+01           0.00000000E+00           0.00000000E+00
  -0.19700000E+01           0.00000000E+00           0.00000000E+00
  -0.19600000E+01           0.00000000E+00           0.00000000E+00
  -0.19500000E+01           0.00000000E+00           0.00000000E+00
  -0.19400000E+01           0.00000000E+00           0.00000000E+00
  -0.19300000E+01           0.00000000E+00           0.00000000E+00
  -0.19200000E+01           0.00000000E+00           0.00000000E+00
  -0.19100000E+01           0.00000000E+00           0.00000000E+00
  -0.19000000E+01           0.00000000E+00           0.00000000E+00
  -0.18900000E+01           0.00000000E+00           0.00000000E+00
  -0.18800000E+01           0.00000000E+00           0.00000000E+00
  -0.18700000E+01           0.00000000E+00           0.00000000E+00
  -0.18600000E+01           0.00000000E+00           0.00000000E+00
  -0.18500000E+01           0.00000000E+00           0.00000000E+00
  -0.18400000E+01           0.00000000E+00           0.00000000E+00
  -0.18300000E+01           0.00000000E+00           0.00000000E+00
  -0.18200000E+01           0.00000000E+00           0.00000000E+00
  -0.18100000E+01           0.00000000E+00           0.00000000E+00
  -0.18000000E+01           0.00000000E+00           0.00000000E+00
  -0.17900000E+01           0.00000000E+00           0.00000000E+00
  -0.17800000E+01           0.00000000E+00           0.00000000E+00
  -0.17700000E+01           0.00000000E+00           0.00000000E+00
  -0.17600000E+01           0.00000000E+00           0.00000000E+00
  -0.17500000E+01           0.00000000E+00           0.00000000E+00
  -0.17400000E+01           0.00000000E+00           0.00000000E+00
  -0.17300000E+01           0.00000000E+00           0.00000000E+00
  -0.17200000E+01           0.00000000E+00           0.00000000E+00
  -0.17100000E+01           0.00000000E+00           0.00000000E+00
  -0.17000000E+01           0.00000000E+00           0.00000000E+00
  -0.16900000E+01           0.00000000E+00           0.00000000E+00
  -0.16800000E+01           0.00000000E+00           0.00000000E+00
  -0.16700000E+01           0.00000000E+00           0.00000000E+00
  -0.16600000E+01           0.00000000E+00           0.00000000E+00
  -0.16500000E+01           0.00000000E+00           0.00000000E+00
  -0.16400000E+01           0.00000000E+00           0.00000000E+00
  -0.16300000E+01           0.00000000E+00           0.00000000E+00
  -0.16200000E+01           0.00000000E+00           0.00000000E+00
  -0.16100000E+01           0.00000000E+00           0.00000000E+00
  -0.16000000E+01           0.00000000E+00           0.00000000E+00
  -0.15900000E+01           0.00000000E+00           0.00000000E+00
  -0.15800000E+01           0.00000000E+00           0.00000000E+00
  -0.15700000E+01           0.00000000E+00           0.00000000E+00
  -0.15600000E+01           0.00000000E+00           0.00000000E+00
  -0.15500000E+01           0.00000000E+00           0.00000000E+00
  -0.15400000E+01           0.00000000E+00           0.00000000E+00
  -0.15300000E+01           0.00000000E+00           0.00000000E+00
  -0.15200000E+01           0.00000000E+00           0.00000000E+00
  -0.15100000E+01           0.00000000E+00           0.00000000E+00
  -0.15000000E+01           0.00000000E+00           0.00000000E+00
  -0.14900000E+01           0.00000000E+00           0.00000000E+00
  -0.14800000E+01           0.00000000E+00           0.00000000E+00
  -0.14700000E+01           0.00000000E+00           0.00000000E+00
  -0.14600000E+01           0.00000000E+00           0.00000000E+00
  -0.14500000E+01           0.00000000E+00           0.00000000E+00
  -0.14400000E+01           0.00000000E+00           0.00000000E+00
  -0.14300000E+01           0.00000000E+00           0.00000000E+00
  -0.14200000E+01           0.00000000E+00           0.00000000E+00
  -0.14100000E+01           0.00000000E+00           0.00000000E+00
  -0.14000000E+01           0.00000000E+00           0.00000000E+00
  -0.13900000E+01           0.00000000E+00           0.00000000E+00
  -0.13800000E+01           0.00000000E+00           0.00000000E+00
  -0.13700000E+01           0.00000000E+00           0.00000000E+00
  -0.13600000E+01           0.00000000E+00           0.00000000E+00
  -0.13500000E+01           0.00000000E+00           0.00000000E+00
  -0.13400000E+01           0.00000000E+00           0.00000000E+00
  -0.13300000E+01           0.00000000E+00           0.00000000E+00
  -0.13200000E+01           0.00000000E+00           0.00000000E+00
  -0.13100000E+01           0.00000000E+00           0.00000000E+00
  -0.13000000E+01           0.00000000E+00           0.00000000E+00
  -0.12900000E+01           0.00000000E+00           0.00000000E+00
  -0.12800000E+01           0.00000000E+00           0.00000000E+00
  -0.12700000E+01           0.00000000E+00           0.00000000E+00
  -0.12600000E+01           0.00000000E+00           0.00000000E+00
  -0.12500000E+01           0.00000000E+00           0.00000000E+00
  -0.12400000E+01           0.00000000E+00           0.00000000E+00
  -0.12300000E+01           0.00000000E+00           0.00000000E+00
  -0.12200000E+01           0.00000000E+00           0.00000000E+00
  -0.12100000E+01           0.00000000E+00           0.00000000E+00
  -0.12000000E+01           0.00000000E+00           0.00000000E+00
  -0.11900000E+01           0.00000000E+00           0.00000000E+00
  -0.11800000E+01           0.00000000E+00           0.00000000E+00
  -0.11700000E+01           0.00000000E+00           0.00000000E+00
  -0.11600000E+01           0.00000000E+00           0.00000000E+00
  -0.11500000E+01           0.00000000E+00           0.00000000E+00
  -0.11400000E+01           0.00000000E+00           0.00000000E+00
  -0.11300000E+01           0.00000000E+00           0.00000000E+00
  -0.11200000E+01           0.00000000E+00           0.00000000E+00
  -0.11100000E+01           0.00000000E+00           0.00000000E+00
  -0.11000000E+01           0.00000000E+00           0.00000000E+00
  -0.10900000E+01           0.00000000E+00           0.00000000E+00
  -0.10800000E+01           0.00000000E+00           0.00000000E+00
  -0.10700000E+01           0.00000000E+00           0.00000000E+00
  -0.10600000E+01           0.00000000E+00           0.00000000E+00
  -0.10500000E+01           0.00000000E+00           0.00000000E+00
  -0.10400000E+01           0.00000000E+00           0.00000000E+00
  -0.10300000E+01           0.00000000E+00           0.00000000E+00
  -0.10200000E+01           0.00000000E+00           0.00000000E+00
  -0.10100000E+01           0.00000000E+00           0.00000000E+00
  -0.10000000E+01           0.00000000E+00           0.00000000E+00
  -0.99000000E+00           0.00000000E+00           0.00000000E+00
  -0.98000000E+00           0.00000000E+00           0.00000000E+00
  -0.97000000E+00           0.00000000E+00           0.00000000E+00
  -0.96000000E+00           0.00000000E+00           0.00000000E+00
  -0.95000000E+00           0.00000000E+00           0.00000000E+00
  -0.94000000E+00           0.00000000E+00           0.00000000E+00
  -0.93000000E+00           0.00000000E+00           0.00000000E+00
  -0.92000000E+00           0.00000000E+00           0.00000000E+00
  -0.91000000E+00           0.00000000E+00           0.00000000E+00
  -0.90000000E+00           0.00000000E+00           0.00000000E+00
  -0.89000000E+00           0.00000000E+00           0.00000000E+00
  -0.88000000E+00           0.00000000E+00           0.00000000E+00
  -0.87000000E+00           0.00000000E+00           0.00000000E+00
  -0.86000000E+00           0.00000000E+00           0.00000000E+00
  -0.85000000E+00           0.00000000E+00           0.00000000E+00
  -0.84000000E+00           0.00000000E+00           0.00000000E+00
  -0.83000000E+00           0.00000000E+00           0.00000000E+00
  -0.82000000E+00           0.00000000E+00           0.00000000E+00
  -0.81000000E+00           0.00000000E+00           0.00000000E+00
  -0.80000000E+00           0.00000000E+00           0.00000000E+00
  -0.79000000E+00           0.00000000E+00           0.00000000E+00
  -0.78000000E+00           0.00000000E+00           0.00000000E+00
  -0.77000000E+00           0.00000000E+00           0.00000000E+00
  -0.76000000E+00           0.00000000E+00           0.00000000E+00
  -0.75000000E+00           0.00000000E+00           0.00000000E+00
  -0.74000000E+00           0.00000000E+00           0.00000000E+00
  -0.73000000E+00           0.00000000E+00           0.00000000E+00
  -0.72000000E+00           0.00000000E+00           0.00000000E+00
  -0.71000000E+00           0.00000000E+00           0.00000000E+00
  -0.70000000E+00           0.00000000E+00           0.00000000E+00
  -0.69000000E+00           0.00000000E+00           0.00000000E+00
  -0.68000000E+00           0.00000000E+00           0.00000000E+00
  -0.67000000E+00           0.00000000E+00           0.00000000E+00
  -0.66000000E+00           0.00000000E+00           0.00000000E+00
  -0.65000000E+00           0.00000000E+00           0.00000000E+00
  -0.64000000E+00           0.00000000E+00           0.00000000E+00
  -0.63000000E+00           0.00000000E+00           0.00000000E+00
  -0.62000000E+00           0.00000000E+00           0.00000000E+00
  -0.61000000E+00           0.00000000E+00           0.00000000E+00
  -0.60000000E+00           0.00000000E+00           0.00000000E+00
  -0.59000000E+00           0.00000000E+00           0.00000000E+00
  -0.58000000E+00           0.00000000E+00           0.00000000E+00
  -0.57000000E+00           0.00000000E+00           0.00000000E+00
  -0.56000000E+00           0.00000000E+00           0.00000000E+00
  -0.55000000E+00           0.00000000E+00           0.00000000E+00
  -0.54000000E+00           0.00000000E+00           0.00000000E+00
  -0.53000000E+00           0.00000000E+00           0.00000000E+00
  -0.52000000E+00           0.00000000E+00           0.00000000E+00
  -0.51000000E+00           0.00000000E+00           0.00000000E+00
  -0.50000000E+00           0.00000000E+00           0.00000000E+00
  -0.49000000E+00           0.00000000E+00           0.00000000E+00
  -0.48000000E+00           0.00000000E+00           0.00000000E+00
  -0.47000000E+00           0.00000000E+00           0.00000000E+00
  -0.46000000E+00           0.00000000E+00           0.00000000E+00
  -0.45000000E+00           0.00000000E+00           0.00000000E+00
  -0.44000000E+00           0.00000000E+00           0.00000000E+00
  -0.43000000E+00           0.00000000E+00           0.00000000E+00
  -0.42000000E+00           0.00000000E+00           0.00000000E+00
  -0.41000000E+00           0.00000000E+00           0.00000000E+00
  -0.40000000E+00           0.00000000E+00           0.00000000E+00
  -0.39000000E+00           0.00000000E+00           0.00000000E+00
  -0.38000000E+00           0.00000000E+00           0.00000000E+00
  -0.37000000E+00           0.00000000E+00           0.00000000E+00
  -0.36000000E+00           0.00000000E+00           0.00000000E+00
  -0.35000000E+00           0.00000000E+00           0.00000000E+00
  -0.34000000E+00           0.00000000E+00           0.00000000E+00
  -0.33000000E+00           0.00000000E+00           0.00000000E+00
  -0.32000000E+00           0.00000000E+00           0.00000000E+00
  -0.31000000E+00           0.00000000E+00           0.00000000E+00
  -0.30000000E+00           0.00000000E+00           0.00000000E+00
[...]
   0.10700000E+01           0.91523438E-01           0.21853125E+00
   0.10800000E+01           0.82054688E-01           0.21278125E+00
   0.10900000E+01           0.76000000E-01           0.21531250E+00
   0.11000000E+01           0.67062500E-01           0.21267188E+00
   0.11100000E+01           0.62773438E-01           0.21640625E+00
   0.11200000E+01           0.57726563E-01           0.21138281E+00
   0.11300000E+01           0.51976563E-01           0.21079688E+00
   0.11400000E+01           0.47015625E-01           0.21033594E+00
   0.11500000E+01           0.43351563E-01           0.21107031E+00
   0.11600000E+01           0.38265625E-01           0.20546875E+00
   0.11700000E+01           0.36414063E-01           0.20818750E+00
   0.11800000E+01           0.31312500E-01           0.20515625E+00
   0.11900000E+01           0.28125000E-01           0.20477344E+00
   0.12000000E+01           0.26273438E-01           0.20239063E+00
   0.12100000E+01           0.23929688E-01           0.20809375E+00
   0.12200000E+01           0.20640625E-01           0.20274219E+00
   0.12300000E+01           0.18671875E-01           0.20319531E+00
   0.12400000E+01           0.17117188E-01           0.19939063E+00
   0.12500000E+01           0.15515625E-01           0.19827344E+00
   0.12600000E+01           0.15125000E-01           0.20378906E+00
   0.12700000E+01           0.11750000E-01           0.20251563E+00
   0.12800000E+01           0.10468750E-01           0.19571094E+00
   0.12900000E+01           0.10109375E-01           0.19185938E+00
   0.13000000E+01           0.84921875E-02           0.19829688E+00
   0.13100000E+01           0.73046875E-02           0.19074219E+00
   0.13200000E+01           0.70703125E-02           0.19519531E+00
   0.13300000E+01           0.61093750E-02           0.18694531E+00
   0.13400000E+01           0.52968750E-02           0.19828906E+00
   0.13500000E+01           0.48828125E-02           0.19164844E+00
   0.13600000E+01           0.40468750E-02           0.19167188E+00
   0.13700000E+01           0.41328125E-02           0.18426563E+00
   0.13800000E+01           0.33281250E-02           0.18096875E+00
   0.13900000E+01           0.28984375E-02           0.18382813E+00
   0.14000000E+01           0.27578125E-02           0.18598438E+00
   0.14100000E+01           0.19453125E-02           0.17961719E+00
   0.14200000E+01           0.19609375E-02           0.18218750E+00
   0.14300000E+01           0.18515625E-02           0.18458594E+00
   0.14400000E+01           0.15546875E-02           0.17810156E+00
   0.14500000E+01           0.14296875E-02           0.17944531E+00
   0.14600000E+01           0.10156250E-02           0.18022656E+00
   0.14700000E+01           0.10781250E-02           0.17577344E+00
   0.14800000E+01           0.78125000E-03           0.17307031E+00
   0.14900000E+01           0.81250000E-03           0.17504688E+00
   0.15000000E+01           0.73437500E-03           0.17025781E+00
   0.15100000E+01           0.74218750E-03           0.17450000E+00
   0.15200000E+01           0.51562500E-03           0.16968750E+00
   0.15300000E+01           0.48437500E-03           0.16528125E+00
   0.15400000E+01           0.42187500E-03           0.16721094E+00
   0.15500000E+01           0.31250000E-03           0.16910938E+00
   0.15600000E+01           0.24218750E-03           0.16707031E+00
   0.15700000E+01           0.26562500E-03           0.16384375E+00
   0.15800000E+01           0.29687500E-03           0.16290625E+00
   0.15900000E+01           0.17187500E-03           0.15907813E+00
   0.16000000E+01           0.12500000E-03           0.16332813E+00
   0.16100000E+01           0.85937500E-04           0.15833594E+00
   0.16200000E+01           0.85937500E-04           0.15742969E+00
   0.16300000E+01           0.11718750E-03           0.15785156E+00
   0.16400000E+01           0.62500000E-04           0.15682813E+00
   0.16500000E+01           0.78125000E-04           0.15570313E+00
   0.16600000E+01           0.31250000E-04           0.15101563E+00
   0.16700000E+01           0.70312500E-04           0.15025781E+00
   0.16800000E+01           0.12500000E-03           0.15249219E+00
   0.16900000E+01           0.70312500E-04           0.15035156E+00
   0.17000000E+01           0.23437500E-04           0.14664844E+00
   0.17100000E+01           0.39062500E-04           0.14671094E+00
   0.17200000E+01           0.31250000E-04           0.14560938E+00
   0.17300000E+01           0.23437500E-04           0.14807031E+00
   0.17400000E+01           0.78125000E-05           0.14295313E+00
   0.17500000E+01           0.23437500E-04           0.13889844E+00
   0.17600000E+01           0.31250000E-04           0.14169531E+00
   0.17700000E+01           0.15625000E-04           0.13867188E+00
   0.17800000E+01           0.00000000E+00           0.13790625E+00
   0.17900000E+01           0.00000000E+00           0.13824219E+00
   0.18000000E+01           0.78125000E-05           0.13499219E+00
   0.18100000E+01           0.78125000E-05           0.13462500E+00
   0.18200000E+01           0.00000000E+00           0.13184375E+00
   0.18300000E+01           0.00000000E+00           0.13356250E+00
   0.18400000E+01           0.00000000E+00           0.12998438E+00
   0.18500000E+01           0.00000000E+00           0.12986719E+00
   0.18600000E+01           0.00000000E+00           0.13182031E+00
   0.18700000E+01           0.00000000E+00           0.12821875E+00
   0.18800000E+01           0.78125000E-05           0.12896875E+00
   0.18900000E+01           0.00000000E+00           0.12857031E+00
   0.19000000E+01           0.00000000E+00           0.12406250E+00
   0.19100000E+01           0.00000000E+00           0.12670312E+00
   0.19200000E+01           0.00000000E+00           0.12364844E+00
   0.19300000E+01           0.00000000E+00           0.12496094E+00
   0.19400000E+01           0.00000000E+00           0.12607031E+00
   0.19500000E+01           0.00000000E+00           0.12164063E+00
   0.19600000E+01           0.00000000E+00           0.12160938E+00
   0.19700000E+01           0.00000000E+00           0.11666406E+00
   0.19800000E+01           0.00000000E+00           0.11782813E+00
   0.19900000E+01           0.00000000E+00           0.11416406E+00
   0.20000000E+01           0.00000000E+00           0.11567969E+00
   0.20100000E+01           0.00000000E+00           0.11137500E+00
   0.20200000E+01           0.00000000E+00           0.11138281E+00
   0.20300000E+01           0.00000000E+00           0.11428906E+00
   0.20400000E+01           0.00000000E+00           0.11142188E+00
   0.20500000E+01           0.78125000E-05           0.10736719E+00
   0.20600000E+01           0.00000000E+00           0.10983594E+00
   0.20700000E+01           0.00000000E+00           0.11341406E+00
   0.20800000E+01           0.00000000E+00           0.10750000E+00
   0.20900000E+01           0.00000000E+00           0.10469531E+00
   0.21000000E+01           0.00000000E+00           0.10336719E+00
   0.21100000E+01           0.00000000E+00           0.10497656E+00
   0.21200000E+01           0.00000000E+00           0.10204688E+00
   0.21300000E+01           0.00000000E+00           0.99585938E-01
   0.21400000E+01           0.00000000E+00           0.10014844E+00
   0.21500000E+01           0.00000000E+00           0.10196875E+00
   0.21600000E+01           0.00000000E+00           0.10076563E+00
   0.21700000E+01           0.00000000E+00           0.10039844E+00
   0.21800000E+01           0.00000000E+00           0.10000781E+00
   0.21900000E+01           0.00000000E+00           0.94984375E-01
   0.22000000E+01           0.00000000E+00           0.93062500E-01
   0.22100000E+01           0.00000000E+00           0.94726563E-01
   0.22200000E+01           0.00000000E+00           0.94570313E-01
   0.22300000E+01           0.00000000E+00           0.95250000E-01
   0.22400000E+01           0.00000000E+00           0.92242188E-01
   0.22500000E+01           0.00000000E+00           0.93953125E-01
   0.22600000E+01           0.00000000E+00           0.92015625E-01
   0.22700000E+01           0.00000000E+00           0.90093750E-01
   0.22800000E+01           0.00000000E+00           0.92500000E-01
   0.22900000E+01           0.00000000E+00           0.89046875E-01
   0.23000000E+01           0.00000000E+00           0.88257813E-01
   0.23100000E+01           0.00000000E+00           0.87164063E-01
   0.23200000E+01           0.00000000E+00           0.88093750E-01
   0.23300000E+01           0.00000000E+00           0.90054688E-01
   0.23400000E+01           0.00000000E+00           0.88898438E-01
   0.23500000E+01           0.00000000E+00           0.83664063E-01
   0.23600000E+01           0.00000000E+00           0.85117188E-01
   0.23700000E+01           0.00000000E+00           0.86171875E-01
   0.23800000E+01           0.00000000E+00           0.82226563E-01
   0.23900000E+01           0.00000000E+00           0.80117188E-01
   0.24000000E+01           0.00000000E+00           0.81851563E-01
   0.24100000E+01           0.00000000E+00           0.79007813E-01
   0.24200000E+01           0.00000000E+00           0.78023438E-01
   0.24300000E+01           0.00000000E+00           0.78515625E-01
   0.24400000E+01           0.00000000E+00           0.77570313E-01
   0.24500000E+01           0.00000000E+00           0.78953125E-01
   0.24600000E+01           0.00000000E+00           0.76273438E-01
   0.24700000E+01           0.00000000E+00           0.77281250E-01
   0.24800000E+01           0.00000000E+00           0.75531250E-01
   0.24900000E+01           0.00000000E+00           0.75625000E-01
   0.25000000E+01           0.00000000E+00           0.73281250E-01
   0.25100000E+01           0.00000000E+00           0.74281250E-01
   0.25200000E+01           0.00000000E+00           0.74109375E-01
   0.25300000E+01           0.00000000E+00           0.72500000E-01
   0.25400000E+01           0.00000000E+00           0.70414062E-01
   0.25500000E+01           0.00000000E+00           0.71015625E-01
   0.25600000E+01           0.00000000E+00           0.70757813E-01
   0.25700000E+01           0.00000000E+00           0.70578125E-01
   0.25800000E+01           0.00000000E+00           0.70023438E-01
   0.25900000E+01           0.00000000E+00           0.68304688E-01
   0.26000000E+01           0.00000000E+00           0.67093750E-01
   0.26100000E+01           0.00000000E+00           0.69656250E-01
   0.26200000E+01           0.00000000E+00           0.65320313E-01
   0.26300000E+01           0.00000000E+00           0.62640625E-01
   0.26400000E+01           0.00000000E+00           0.66609375E-01
   0.26500000E+01           0.00000000E+00           0.64710938E-01
   0.26600000E+01           0.00000000E+00           0.61515625E-01
   0.26700000E+01           0.00000000E+00           0.66015625E-01
   0.26800000E+01           0.00000000E+00           0.65085938E-01
   0.26900000E+01           0.00000000E+00           0.61507813E-01
   0.27000000E+01           0.00000000E+00           0.61718750E-01
   0.27100000E+01           0.00000000E+00           0.60960938E-01
   0.27200000E+01           0.00000000E+00           0.59023438E-01
   0.27300000E+01           0.00000000E+00           0.60929688E-01
   0.27400000E+01           0.00000000E+00           0.59796875E-01
   0.27500000E+01           0.00000000E+00           0.57492188E-01
   0.27600000E+01           0.00000000E+00           0.57281250E-01
   0.27700000E+01           0.00000000E+00           0.55687500E-01
   0.27800000E+01           0.00000000E+00           0.56132813E-01
   0.27900000E+01           0.00000000E+00           0.55070313E-01
   0.28000000E+01           0.00000000E+00           0.54718750E-01
   0.28100000E+01           0.00000000E+00           0.54992188E-01
   0.28200000E+01           0.00000000E+00           0.51390625E-01
   0.28300000E+01           0.00000000E+00           0.52804688E-01
   0.28400000E+01           0.00000000E+00           0.55445313E-01
   0.28500000E+01           0.00000000E+00           0.50625000E-01
   0.28600000E+01           0.00000000E+00           0.50835938E-01
   0.28700000E+01           0.00000000E+00           0.49742188E-01
   0.28800000E+01           0.00000000E+00           0.51929688E-01
   0.28900000E+01           0.00000000E+00           0.49031250E-01
   0.29000000E+01           0.00000000E+00           0.51507813E-01
   0.29100000E+01           0.00000000E+00           0.48742188E-01
   0.29200000E+01           0.00000000E+00           0.46554688E-01
   0.29300000E+01           0.00000000E+00           0.47828125E-01
   0.29400000E+01           0.00000000E+00           0.49390625E-01
   0.29500000E+01           0.00000000E+00           0.43453125E-01
   0.29600000E+01           0.00000000E+00           0.47406250E-01
   0.29700000E+01           0.00000000E+00           0.46078125E-01
   0.29800000E+01           0.00000000E+00           0.44078125E-01
   0.29900000E+01           0.00000000E+00           0.41953125E-01
   0.30000000E+01           0.00000000E+00           0.41789063E-01
   0.30100000E+01           0.00000000E+00           0.44351563E-01
   0.30200000E+01           0.00000000E+00           0.41195313E-01
   0.30300000E+01           0.00000000E+00           0.40968750E-01
   0.30400000E+01           0.00000000E+00           0.42109375E-01
   0.30500000E+01           0.00000000E+00           0.39625000E-01
   0.30600000E+01           0.00000000E+00           0.41398438E-01
   0.30700000E+01           0.00000000E+00           0.38609375E-01
   0.30800000E+01           0.00000000E+00           0.38406250E-01
   0.30900000E+01           0.00000000E+00           0.36835938E-01
   0.31000000E+01           0.00000000E+00           0.37179688E-01
   0.31100000E+01           0.00000000E+00           0.37554688E-01
   0.31200000E+01           0.00000000E+00           0.36234375E-01
   0.31300000E+01           0.00000000E+00           0.35632812E-01
   0.31400000E+01           0.00000000E+00           0.33148438E-01
   0.31500000E+01           0.00000000E+00           0.33945313E-01
   0.31600000E+01           0.00000000E+00           0.34742188E-01
   0.31700000E+01           0.00000000E+00           0.35578125E-01
   0.31800000E+01           0.00000000E+00           0.34039063E-01
   0.31900000E+01           0.00000000E+00           0.31195313E-01
   0.32000000E+01           0.00000000E+00           0.32343750E-01
   0.32100000E+01           0.00000000E+00           0.31156250E-01
   0.32200000E+01           0.00000000E+00           0.33000000E-01
   0.32300000E+01           0.00000000E+00           0.30585938E-01
   0.32400000E+01           0.00000000E+00           0.30156250E-01
   0.32500000E+01           0.00000000E+00           0.29820313E-01
   0.32600000E+01           0.00000000E+00           0.30578125E-01
   0.32700000E+01           0.00000000E+00           0.26796875E-01
   0.32800000E+01           0.00000000E+00           0.27390625E-01
   0.32900000E+01           0.00000000E+00           0.27492188E-01
   0.33000000E+01           0.00000000E+00           0.26882813E-01
   0.33100000E+01           0.00000000E+00           0.26523438E-01
   0.33200000E+01           0.00000000E+00           0.26562500E-01
   0.33300000E+01           0.00000000E+00           0.23554688E-01
   0.33400000E+01           0.00000000E+00           0.25593750E-01
   0.33500000E+01           0.00000000E+00           0.24867188E-01
   0.33600000E+01           0.00000000E+00           0.23593750E-01
   0.33700000E+01           0.00000000E+00           0.23328125E-01
   0.33800000E+01           0.00000000E+00           0.22156250E-01
   0.33900000E+01           0.00000000E+00           0.23437500E-01
   0.34000000E+01           0.00000000E+00           0.20859375E-01
   0.34100000E+01           0.00000000E+00           0.20320313E-01
   0.34200000E+01           0.00000000E+00           0.20234375E-01
   0.34300000E+01           0.00000000E+00           0.20390625E-01
   0.34400000E+01           0.00000000E+00           0.19578125E-01
   0.34500000E+01           0.00000000E+00           0.19148438E-01
   0.34600000E+01           0.00000000E+00           0.17632813E-01
   0.34700000E+01           0.00000000E+00           0.18453125E-01
   0.34800000E+01           0.00000000E+00           0.17265625E-01
   0.34900000E+01           0.00000000E+00           0.17507813E-01
   0.35000000E+01           0.00000000E+00           0.16312500E-01
   0.35100000E+01           0.00000000E+00           0.15468750E-01
   0.35200000E+01           0.00000000E+00           0.16726563E-01
   0.35300000E+01           0.00000000E+00           0.15445313E-01
   0.35400000E+01           0.00000000E+00           0.15750000E-01
   0.35500000E+01           0.00000000E+00           0.14218750E-01
   0.35600000E+01           0.00000000E+00           0.14906250E-01
   0.35700000E+01           0.00000000E+00           0.13531250E-01
   0.35800000E+01           0.00000000E+00           0.12437500E-01
   0.35900000E+01           0.00000000E+00           0.12476563E-01
   0.36000000E+01           0.00000000E+00           0.12312500E-01
   0.36100000E+01           0.00000000E+00           0.11640625E-01
   0.36200000E+01           0.00000000E+00           0.11500000E-01
   0.36300000E+01           0.00000000E+00           0.10085938E-01
   0.36400000E+01           0.00000000E+00           0.10929688E-01
   0.36500000E+01           0.00000000E+00           0.93984375E-02
   0.36600000E+01           0.00000000E+00           0.90468750E-02
   0.36700000E+01           0.00000000E+00           0.91484375E-02
   0.36800000E+01           0.00000000E+00           0.82265625E-02
   0.36900000E+01           0.00000000E+00           0.85000000E-02
   0.37000000E+01           0.00000000E+00           0.82187500E-02
   0.37100000E+01           0.00000000E+00           0.66953125E-02
   0.37200000E+01           0.00000000E+00           0.72890625E-02
   0.37300000E+01           0.00000000E+00           0.65703125E-02
   0.37400000E+01           0.00000000E+00           0.51406250E-02
   0.37500000E+01           0.00000000E+00           0.56796875E-02
   0.37600000E+01           0.00000000E+00           0.52578125E-02
   0.37700000E+01           0.00000000E+00           0.53984375E-02
   0.37800000E+01           0.00000000E+00           0.41718750E-02
   0.37900000E+01           0.00000000E+00           0.41484375E-02
   0.38000000E+01           0.00000000E+00           0.36015625E-02
   0.38100000E+01           0.00000000E+00           0.35312500E-02
   0.38200000E+01           0.00000000E+00           0.25781250E-02
   0.38300000E+01           0.00000000E+00           0.22578125E-02
   0.38400000E+01           0.00000000E+00           0.20078125E-02
   0.38500000E+01           0.00000000E+00           0.18593750E-02
   0.38600000E+01           0.00000000E+00           0.14062500E-02
   0.38700000E+01           0.00000000E+00           0.11171875E-02
   0.38800000E+01           0.00000000E+00           0.16093750E-02
   0.38900000E+01           0.00000000E+00           0.71093750E-03
   0.39000000E+01           0.00000000E+00           0.12031250E-02
   0.39100000E+01           0.00000000E+00           0.86718750E-03
   0.39200000E+01           0.00000000E+00           0.42968750E-03
   0.39300000E+01           0.00000000E+00           0.17968750E-03
   0.39400000E+01           0.00000000E+00           0.35937500E-03
   0.39500000E+01           0.00000000E+00           0.18750000E-03
   0.39600000E+01           0.00000000E+00           0.23437500E-04
   0.39700000E+01           0.00000000E+00           0.00000000E+00
   0.39800000E+01           0.00000000E+00           0.00000000E+00
   0.39900000E+01           0.00000000E+00           0.00000000E+00
   0.40000000E+01           0.00000000E+00           0.00000000E+00
