 #written on  7Aug2021 at 23:09:39 
 #----------------------------------------------- MONTECARLO ---------------------------------------------------#
 # Temp      Magnetization     Energy_ave          C_M              Sus              U_E              U_M       #
 #--------------------------------------------------------------------------------------------------------------#
   4.0000   0.17453461E-02  -0.17178898E+03   0.10146501E+01   0.39614676E-03   0.66666635E+00   0.37595767E+00
   5.0476   0.19661059E-02  -0.17072872E+03   0.10124063E+01   0.39144853E-03   0.66666615E+00   0.38061396E+00
   6.0952   0.21685816E-02  -0.16966494E+03   0.10134299E+01   0.38903471E-03   0.66666591E+00   0.38398711E+00
   7.1429   0.23619403E-02  -0.16859834E+03   0.10234858E+01   0.38348883E-03   0.66666560E+00   0.39179826E+00
   8.1905   0.25348363E-02  -0.16752736E+03   0.10264226E+01   0.38344645E-03   0.66666525E+00   0.39287890E+00
   9.2381   0.27020527E-02  -0.16645077E+03   0.10370216E+01   0.38095621E-03   0.66666482E+00   0.39588851E+00
  10.2857   0.28657573E-02  -0.16537088E+03   0.10357556E+01   0.37790090E-03   0.66666435E+00   0.40163339E+00
  11.3333   0.30203144E-02  -0.16428783E+03   0.10349317E+01   0.37570916E-03   0.66666382E+00   0.40539591E+00
  12.3810   0.31640736E-02  -0.16320086E+03   0.10353753E+01   0.37504517E-03   0.66666322E+00   0.40731018E+00
  13.4286   0.33044948E-02  -0.16210772E+03   0.10451458E+01   0.37324240E-03   0.66666252E+00   0.41009856E+00
  14.4762   0.34444960E-02  -0.16101209E+03   0.10501976E+01   0.37152627E-03   0.66666175E+00   0.41383142E+00
  15.5238   0.35814052E-02  -0.15990999E+03   0.10529564E+01   0.37027521E-03   0.66666092E+00   0.41706634E+00
  16.5714   0.37064127E-02  -0.15880469E+03   0.10578028E+01   0.36925276E-03   0.66666000E+00   0.41915179E+00
  17.6190   0.38365343E-02  -0.15769222E+03   0.10634620E+01   0.36898457E-03   0.66665898E+00   0.42151426E+00
  18.6667   0.39619147E-02  -0.15657289E+03   0.10736502E+01   0.36809241E-03   0.66665784E+00   0.42411700E+00
  19.7143   0.40836932E-02  -0.15545252E+03   0.10759015E+01   0.36832534E-03   0.66665665E+00   0.42562333E+00
  20.7619   0.41979017E-02  -0.15432253E+03   0.10814380E+01   0.36696258E-03   0.66665534E+00   0.42781650E+00
  21.8095   0.43176195E-02  -0.15318790E+03   0.10886698E+01   0.36746335E-03   0.66665390E+00   0.42989228E+00
  22.8571   0.44296641E-02  -0.15204753E+03   0.10919205E+01   0.36729904E-03   0.66665239E+00   0.43104398E+00
  23.9048   0.45423036E-02  -0.15089978E+03   0.10923042E+01   0.36782594E-03   0.66665081E+00   0.43240288E+00
  24.9524   0.46513298E-02  -0.14974559E+03   0.11053842E+01   0.36837275E-03   0.66664891E+00   0.43347497E+00
  26.0000   0.47581806E-02  -0.14858189E+03   0.11122404E+01   0.36797455E-03   0.66664696E+00   0.43473141E+00
  27.0476   0.48644393E-02  -0.14741128E+03   0.11223289E+01   0.36872759E-03   0.66664480E+00   0.43571520E+00
  28.0952   0.49693330E-02  -0.14623174E+03   0.11315955E+01   0.36939091E-03   0.66664250E+00   0.43673241E+00
  29.1429   0.50765775E-02  -0.14504514E+03   0.11374844E+01   0.37093422E-03   0.66664010E+00   0.43734680E+00
  30.1905   0.51767873E-02  -0.14385121E+03   0.11460785E+01   0.37097332E-03   0.66663746E+00   0.43827169E+00
  31.2381   0.52765236E-02  -0.14264068E+03   0.11595985E+01   0.37212578E-03   0.66663449E+00   0.43891000E+00
  32.2857   0.53756136E-02  -0.14142280E+03   0.11697892E+01   0.37204956E-03   0.66663139E+00   0.44008655E+00
  33.3333   0.54708957E-02  -0.14019143E+03   0.11796201E+01   0.37341101E-03   0.66662808E+00   0.44037080E+00
  34.3810   0.55704440E-02  -0.13895251E+03   0.11915532E+01   0.37477539E-03   0.66662446E+00   0.44066793E+00
  35.4286   0.56682530E-02  -0.13769021E+03   0.12070805E+01   0.37620470E-03   0.66662043E+00   0.44115979E+00
  36.4762   0.57609836E-02  -0.13641701E+03   0.12270820E+01   0.37672034E-03   0.66661591E+00   0.44138227E+00
  37.5238   0.58577736E-02  -0.13512145E+03   0.12437747E+01   0.37787566E-03   0.66661118E+00   0.44205696E+00
  38.5714   0.59540456E-02  -0.13380520E+03   0.12677783E+01   0.37942800E-03   0.66660573E+00   0.44216980E+00
  39.6190   0.60439974E-02  -0.13246628E+03   0.12953230E+01   0.38038881E-03   0.66659964E+00   0.44253988E+00
  40.6667   0.61381632E-02  -0.13109718E+03   0.13188406E+01   0.38149299E-03   0.66659326E+00   0.44318070E+00
  41.7143   0.62315324E-02  -0.12969901E+03   0.13526402E+01   0.38357606E-03   0.66658573E+00   0.44297252E+00
  42.7619   0.63255069E-02  -0.12825791E+03   0.13930253E+01   0.38507691E-03   0.66657711E+00   0.44356918E+00
  43.8095   0.64167504E-02  -0.12677822E+03   0.14317635E+01   0.38686664E-03   0.66656778E+00   0.44361440E+00
  44.8571   0.65119296E-02  -0.12525763E+03   0.14763572E+01   0.38846970E-03   0.66655716E+00   0.44404828E+00
  45.9048   0.66010047E-02  -0.12368649E+03   0.15200650E+01   0.39023700E-03   0.66654557E+00   0.44377183E+00
  46.9524   0.66968771E-02  -0.12207063E+03   0.15622306E+01   0.39216410E-03   0.66653301E+00   0.44398954E+00
  48.0000   0.67909487E-02  -0.12042583E+03   0.15818497E+01   0.39472282E-03   0.66652132E+00   0.44385696E+00
  49.0476   0.68857455E-02  -0.11876449E+03   0.15842839E+01   0.39651393E-03   0.66651038E+00   0.44451245E+00
  50.0952   0.69746548E-02  -0.11710064E+03   0.15857537E+01   0.39897185E-03   0.66649881E+00   0.44400313E+00
  51.1429   0.70659322E-02  -0.11545191E+03   0.15652020E+01   0.40028110E-03   0.66648901E+00   0.44465444E+00
  52.1905   0.71556522E-02  -0.11380505E+03   0.15596072E+01   0.40297377E-03   0.66647695E+00   0.44406971E+00
  53.2381   0.72466051E-02  -0.11218318E+03   0.15349738E+01   0.40487792E-03   0.66646672E+00   0.44412305E+00
  54.2857   0.73330895E-02  -0.11058771E+03   0.15128763E+01   0.40682471E-03   0.66645581E+00   0.44434223E+00
  55.3333   0.74162710E-02  -0.10901545E+03   0.14878684E+01   0.40749292E-03   0.66644495E+00   0.44474285E+00
  56.3810   0.75096968E-02  -0.10746759E+03   0.14636707E+01   0.40961048E-03   0.66643364E+00   0.44508161E+00
  57.4286   0.75871372E-02  -0.10595059E+03   0.14375334E+01   0.41122311E-03   0.66642237E+00   0.44443782E+00
  58.4762   0.76706377E-02  -0.10446022E+03   0.14130280E+01   0.41352659E-03   0.66641054E+00   0.44433339E+00
  59.5238   0.77513192E-02  -0.10299273E+03   0.13785212E+01   0.41503311E-03   0.66640033E+00   0.44396102E+00
  60.5714   0.78318321E-02  -0.10156680E+03   0.13492280E+01   0.41599008E-03   0.66638911E+00   0.44404492E+00
  61.6190   0.79084600E-02  -0.10017301E+03   0.13175416E+01   0.41705633E-03   0.66637830E+00   0.44420040E+00
  62.6667   0.79924055E-02  -0.98804578E+02   0.12861293E+01   0.41820065E-03   0.66636741E+00   0.44446884E+00
  63.7143   0.80703568E-02  -0.97470213E+02   0.12591341E+01   0.41974886E-03   0.66635547E+00   0.44412377E+00
  64.7619   0.81423380E-02  -0.96169897E+02   0.12252119E+01   0.42024865E-03   0.66634528E+00   0.44466072E+00
  65.8095   0.82168153E-02  -0.94895542E+02   0.11955523E+01   0.42102106E-03   0.66633410E+00   0.44430107E+00
  66.8571   0.82880136E-02  -0.93658340E+02   0.11703783E+01   0.42154194E-03   0.66632170E+00   0.44440186E+00
  67.9048   0.83625935E-02  -0.92452121E+02   0.11411553E+01   0.42344131E-03   0.66631060E+00   0.44364466E+00
  68.9524   0.84297157E-02  -0.91269170E+02   0.11120321E+01   0.42365776E-03   0.66629956E+00   0.44425957E+00
  70.0000   0.85059838E-02  -0.90121426E+02   0.10830118E+01   0.42370737E-03   0.66628875E+00   0.44469038E+00
