 #written on  7Aug2021 at 23:09:39 
 #----------------- MONTECARLO -------------------#
 #        M                      P(M)             #
 #------------------------------------------------#
 #T=     4.0000
  -0.40000000E+01           0.00000000E+00
  -0.39900000E+01           0.00000000E+00
  -0.39800000E+01           0.00000000E+00
  -0.39700000E+01           0.00000000E+00
  -0.39600000E+01           0.00000000E+00
  -0.39500000E+01           0.00000000E+00
  -0.39400000E+01           0.00000000E+00
  -0.39300000E+01           0.00000000E+00
  -0.39200000E+01           0.00000000E+00
  -0.39100000E+01           0.00000000E+00
  -0.39000000E+01           0.00000000E+00
  -0.38900000E+01           0.00000000E+00
  -0.38800000E+01           0.00000000E+00
  -0.38700000E+01           0.00000000E+00
  -0.38600000E+01           0.00000000E+00
  -0.38500000E+01           0.00000000E+00
  -0.38400000E+01           0.00000000E+00
  -0.38300000E+01           0.00000000E+00
  -0.38200000E+01           0.00000000E+00
  -0.38100000E+01           0.00000000E+00
  -0.38000000E+01           0.00000000E+00
  -0.37900000E+01           0.00000000E+00
  -0.37800000E+01           0.00000000E+00
  -0.37700000E+01           0.00000000E+00
  -0.37600000E+01           0.00000000E+00
  -0.37500000E+01           0.00000000E+00
  -0.37400000E+01           0.00000000E+00
  -0.37300000E+01           0.00000000E+00
  -0.37200000E+01           0.00000000E+00
  -0.37100000E+01           0.00000000E+00
  -0.37000000E+01           0.00000000E+00
  -0.36900000E+01           0.00000000E+00
  -0.36800000E+01           0.00000000E+00
  -0.36700000E+01           0.00000000E+00
  -0.36600000E+01           0.00000000E+00
  -0.36500000E+01           0.00000000E+00
  -0.36400000E+01           0.00000000E+00
  -0.36300000E+01           0.00000000E+00
  -0.36200000E+01           0.00000000E+00
  -0.36100000E+01           0.00000000E+00
  -0.36000000E+01           0.00000000E+00
  -0.35900000E+01           0.00000000E+00
  -0.35800000E+01           0.00000000E+00
  -0.35700000E+01           0.00000000E+00
  -0.35600000E+01           0.00000000E+00
  -0.35500000E+01           0.00000000E+00
  -0.35400000E+01           0.00000000E+00
  -0.35300000E+01           0.00000000E+00
  -0.35200000E+01           0.00000000E+00
  -0.35100000E+01           0.00000000E+00
  -0.35000000E+01           0.00000000E+00
  -0.34900000E+01           0.00000000E+00
  -0.34800000E+01           0.00000000E+00
  -0.34700000E+01           0.00000000E+00
  -0.34600000E+01           0.00000000E+00
  -0.34500000E+01           0.00000000E+00
  -0.34400000E+01           0.00000000E+00
  -0.34300000E+01           0.00000000E+00
  -0.34200000E+01           0.00000000E+00
  -0.34100000E+01           0.00000000E+00
  -0.34000000E+01           0.00000000E+00
  -0.33900000E+01           0.00000000E+00
  -0.33800000E+01           0.00000000E+00
  -0.33700000E+01           0.00000000E+00
  -0.33600000E+01           0.00000000E+00
  -0.33500000E+01           0.00000000E+00
  -0.33400000E+01           0.00000000E+00
  -0.33300000E+01           0.00000000E+00
  -0.33200000E+01           0.00000000E+00
  -0.33100000E+01           0.00000000E+00
  -0.33000000E+01           0.00000000E+00
  -0.32900000E+01           0.00000000E+00
  -0.32800000E+01           0.00000000E+00
  -0.32700000E+01           0.00000000E+00
  -0.32600000E+01           0.00000000E+00
  -0.32500000E+01           0.00000000E+00
  -0.32400000E+01           0.00000000E+00
  -0.32300000E+01           0.00000000E+00
  -0.32200000E+01           0.00000000E+00
  -0.32100000E+01           0.00000000E+00
  -0.32000000E+01           0.00000000E+00
  -0.31900000E+01           0.00000000E+00
  -0.31800000E+01           0.00000000E+00
  -0.31700000E+01           0.00000000E+00
  -0.31600000E+01           0.00000000E+00
  -0.31500000E+01           0.00000000E+00
  -0.31400000E+01           0.00000000E+00
  -0.31300000E+01           0.00000000E+00
  -0.31200000E+01           0.00000000E+00
  -0.31100000E+01           0.00000000E+00
  -0.31000000E+01           0.00000000E+00
  -0.30900000E+01           0.00000000E+00
  -0.30800000E+01           0.00000000E+00
  -0.30700000E+01           0.00000000E+00
  -0.30600000E+01           0.00000000E+00
  -0.30500000E+01           0.00000000E+00
  -0.30400000E+01           0.00000000E+00
  -0.30300000E+01           0.00000000E+00
  -0.30200000E+01           0.00000000E+00
  -0.30100000E+01           0.00000000E+00
  -0.30000000E+01           0.00000000E+00
  -0.29900000E+01           0.00000000E+00
  -0.29800000E+01           0.00000000E+00
  -0.29700000E+01           0.00000000E+00
  -0.29600000E+01           0.00000000E+00
  -0.29500000E+01           0.00000000E+00
  -0.29400000E+01           0.00000000E+00
  -0.29300000E+01           0.00000000E+00
  -0.29200000E+01           0.00000000E+00
  -0.29100000E+01           0.00000000E+00
  -0.29000000E+01           0.00000000E+00
  -0.28900000E+01           0.00000000E+00
  -0.28800000E+01           0.00000000E+00
  -0.28700000E+01           0.00000000E+00
  -0.28600000E+01           0.00000000E+00
  -0.28500000E+01           0.00000000E+00
  -0.28400000E+01           0.00000000E+00
  -0.28300000E+01           0.00000000E+00
  -0.28200000E+01           0.00000000E+00
  -0.28100000E+01           0.00000000E+00
  -0.28000000E+01           0.00000000E+00
  -0.27900000E+01           0.00000000E+00
  -0.27800000E+01           0.00000000E+00
  -0.27700000E+01           0.00000000E+00
  -0.27600000E+01           0.00000000E+00
  -0.27500000E+01           0.00000000E+00
  -0.27400000E+01           0.00000000E+00
  -0.27300000E+01           0.00000000E+00
  -0.27200000E+01           0.00000000E+00
  -0.27100000E+01           0.00000000E+00
  -0.27000000E+01           0.00000000E+00
  -0.26900000E+01           0.00000000E+00
  -0.26800000E+01           0.00000000E+00
  -0.26700000E+01           0.00000000E+00
  -0.26600000E+01           0.00000000E+00
  -0.26500000E+01           0.00000000E+00
  -0.26400000E+01           0.00000000E+00
  -0.26300000E+01           0.00000000E+00
  -0.26200000E+01           0.00000000E+00
  -0.26100000E+01           0.00000000E+00
  -0.26000000E+01           0.00000000E+00
  -0.25900000E+01           0.00000000E+00
  -0.25800000E+01           0.00000000E+00
  -0.25700000E+01           0.00000000E+00
  -0.25600000E+01           0.00000000E+00
  -0.25500000E+01           0.00000000E+00
  -0.25400000E+01           0.00000000E+00
  -0.25300000E+01           0.00000000E+00
  -0.25200000E+01           0.00000000E+00
  -0.25100000E+01           0.00000000E+00
  -0.25000000E+01           0.00000000E+00
  -0.24900000E+01           0.00000000E+00
  -0.24800000E+01           0.00000000E+00
  -0.24700000E+01           0.00000000E+00
  -0.24600000E+01           0.00000000E+00
  -0.24500000E+01           0.00000000E+00
  -0.24400000E+01           0.00000000E+00
  -0.24300000E+01           0.00000000E+00
  -0.24200000E+01           0.00000000E+00
  -0.24100000E+01           0.00000000E+00
  -0.24000000E+01           0.00000000E+00
  -0.23900000E+01           0.00000000E+00
  -0.23800000E+01           0.00000000E+00
  -0.23700000E+01           0.00000000E+00
  -0.23600000E+01           0.00000000E+00
  -0.23500000E+01           0.00000000E+00
  -0.23400000E+01           0.00000000E+00
  -0.23300000E+01           0.00000000E+00
  -0.23200000E+01           0.00000000E+00
  -0.23100000E+01           0.00000000E+00
  -0.23000000E+01           0.00000000E+00
  -0.22900000E+01           0.00000000E+00
  -0.22800000E+01           0.00000000E+00
  -0.22700000E+01           0.00000000E+00
  -0.22600000E+01           0.00000000E+00
  -0.22500000E+01           0.00000000E+00
  -0.22400000E+01           0.00000000E+00
  -0.22300000E+01           0.00000000E+00
  -0.22200000E+01           0.00000000E+00
  -0.22100000E+01           0.00000000E+00
  -0.22000000E+01           0.00000000E+00
  -0.21900000E+01           0.00000000E+00
  -0.21800000E+01           0.00000000E+00
  -0.21700000E+01           0.00000000E+00
  -0.21600000E+01           0.00000000E+00
  -0.21500000E+01           0.00000000E+00
  -0.21400000E+01           0.00000000E+00
  -0.21300000E+01           0.00000000E+00
  -0.21200000E+01           0.00000000E+00
  -0.21100000E+01           0.00000000E+00
  -0.21000000E+01           0.00000000E+00
  -0.20900000E+01           0.00000000E+00
  -0.20800000E+01           0.00000000E+00
  -0.20700000E+01           0.00000000E+00
  -0.20600000E+01           0.00000000E+00
  -0.20500000E+01           0.00000000E+00
  -0.20400000E+01           0.00000000E+00
  -0.20300000E+01           0.00000000E+00
  -0.20200000E+01           0.00000000E+00
  -0.20100000E+01           0.00000000E+00
  -0.20000000E+01           0.00000000E+00
  -0.19900000E+01           0.00000000E+00
  -0.19800000E+01           0.00000000E+00
  -0.19700000E+01           0.00000000E+00
  -0.19600000E+01           0.00000000E+00
  -0.19500000E+01           0.00000000E+00
  -0.19400000E+01           0.00000000E+00
  -0.19300000E+01           0.00000000E+00
  -0.19200000E+01           0.00000000E+00
  -0.19100000E+01           0.00000000E+00
  -0.19000000E+01           0.00000000E+00
  -0.18900000E+01           0.00000000E+00
  -0.18800000E+01           0.00000000E+00
  -0.18700000E+01           0.00000000E+00
  -0.18600000E+01           0.00000000E+00
  -0.18500000E+01           0.00000000E+00
  -0.18400000E+01           0.00000000E+00
  -0.18300000E+01           0.00000000E+00
  -0.18200000E+01           0.00000000E+00
  -0.18100000E+01           0.00000000E+00
  -0.18000000E+01           0.00000000E+00
  -0.17900000E+01           0.00000000E+00
  -0.17800000E+01           0.00000000E+00
  -0.17700000E+01           0.00000000E+00
  -0.17600000E+01           0.00000000E+00
  -0.17500000E+01           0.00000000E+00
  -0.17400000E+01           0.00000000E+00
  -0.17300000E+01           0.00000000E+00
  -0.17200000E+01           0.00000000E+00
  -0.17100000E+01           0.00000000E+00
  -0.17000000E+01           0.00000000E+00
  -0.16900000E+01           0.00000000E+00
  -0.16800000E+01           0.00000000E+00
  -0.16700000E+01           0.00000000E+00
  -0.16600000E+01           0.00000000E+00
  -0.16500000E+01           0.00000000E+00
  -0.16400000E+01           0.00000000E+00
  -0.16300000E+01           0.00000000E+00
  -0.16200000E+01           0.00000000E+00
  -0.16100000E+01           0.00000000E+00
  -0.16000000E+01           0.00000000E+00
  -0.15900000E+01           0.00000000E+00
  -0.15800000E+01           0.00000000E+00
  -0.15700000E+01           0.00000000E+00
  -0.15600000E+01           0.00000000E+00
  -0.15500000E+01           0.00000000E+00
  -0.15400000E+01           0.00000000E+00
  -0.15300000E+01           0.00000000E+00
  -0.15200000E+01           0.00000000E+00
  -0.15100000E+01           0.00000000E+00
  -0.15000000E+01           0.00000000E+00
  -0.14900000E+01           0.00000000E+00
  -0.14800000E+01           0.00000000E+00
  -0.14700000E+01           0.00000000E+00
  -0.14600000E+01           0.00000000E+00
  -0.14500000E+01           0.00000000E+00
  -0.14400000E+01           0.00000000E+00
  -0.14300000E+01           0.00000000E+00
  -0.14200000E+01           0.00000000E+00
  -0.14100000E+01           0.00000000E+00
  -0.14000000E+01           0.00000000E+00
  -0.13900000E+01           0.00000000E+00
  -0.13800000E+01           0.00000000E+00
  -0.13700000E+01           0.00000000E+00
  -0.13600000E+01           0.00000000E+00
  -0.13500000E+01           0.00000000E+00
  -0.13400000E+01           0.00000000E+00
  -0.13300000E+01           0.00000000E+00
  -0.13200000E+01           0.00000000E+00
  -0.13100000E+01           0.00000000E+00
  -0.13000000E+01           0.00000000E+00
  -0.12900000E+01           0.00000000E+00
  -0.12800000E+01           0.00000000E+00
  -0.12700000E+01           0.00000000E+00
  -0.12600000E+01           0.00000000E+00
  -0.12500000E+01           0.00000000E+00
  -0.12400000E+01           0.00000000E+00
  -0.12300000E+01           0.00000000E+00
  -0.12200000E+01           0.00000000E+00
  -0.12100000E+01           0.00000000E+00
  -0.12000000E+01           0.00000000E+00
  -0.11900000E+01           0.00000000E+00
  -0.11800000E+01           0.00000000E+00
  -0.11700000E+01           0.00000000E+00
  -0.11600000E+01           0.00000000E+00
  -0.11500000E+01           0.00000000E+00
  -0.11400000E+01           0.00000000E+00
  -0.11300000E+01           0.00000000E+00
  -0.11200000E+01           0.00000000E+00
  -0.11100000E+01           0.00000000E+00
  -0.11000000E+01           0.00000000E+00
  -0.10900000E+01           0.00000000E+00
  -0.10800000E+01           0.00000000E+00
  -0.10700000E+01           0.00000000E+00
  -0.10600000E+01           0.00000000E+00
  -0.10500000E+01           0.00000000E+00
  -0.10400000E+01           0.00000000E+00
  -0.10300000E+01           0.00000000E+00
  -0.10200000E+01           0.00000000E+00
  -0.10100000E+01           0.00000000E+00
  -0.10000000E+01           0.00000000E+00
  -0.99000000E+00           0.00000000E+00
  -0.98000000E+00           0.00000000E+00
  -0.97000000E+00           0.00000000E+00
  -0.96000000E+00           0.00000000E+00
  -0.95000000E+00           0.00000000E+00
  -0.94000000E+00           0.00000000E+00
  -0.93000000E+00           0.00000000E+00
  -0.92000000E+00           0.00000000E+00
  -0.91000000E+00           0.00000000E+00
  -0.90000000E+00           0.00000000E+00
  -0.89000000E+00           0.00000000E+00
  -0.88000000E+00           0.00000000E+00
  -0.87000000E+00           0.00000000E+00
  -0.86000000E+00           0.00000000E+00
  -0.85000000E+00           0.00000000E+00
  -0.84000000E+00           0.00000000E+00
  -0.83000000E+00           0.00000000E+00
  -0.82000000E+00           0.00000000E+00
  -0.81000000E+00           0.00000000E+00
  -0.80000000E+00           0.00000000E+00
  -0.79000000E+00           0.00000000E+00
  -0.78000000E+00           0.00000000E+00
  -0.77000000E+00           0.00000000E+00
  -0.76000000E+00           0.00000000E+00
  -0.75000000E+00           0.00000000E+00
  -0.74000000E+00           0.00000000E+00
  -0.73000000E+00           0.00000000E+00
  -0.72000000E+00           0.00000000E+00
  -0.71000000E+00           0.00000000E+00
  -0.70000000E+00           0.00000000E+00
  -0.69000000E+00           0.00000000E+00
  -0.68000000E+00           0.00000000E+00
  -0.67000000E+00           0.00000000E+00
  -0.66000000E+00           0.00000000E+00
  -0.65000000E+00           0.00000000E+00
  -0.64000000E+00           0.00000000E+00
  -0.63000000E+00           0.00000000E+00
  -0.62000000E+00           0.00000000E+00
  -0.61000000E+00           0.00000000E+00
  -0.60000000E+00           0.00000000E+00
  -0.59000000E+00           0.00000000E+00
  -0.58000000E+00           0.00000000E+00
  -0.57000000E+00           0.00000000E+00
  -0.56000000E+00           0.00000000E+00
  -0.55000000E+00           0.00000000E+00
  -0.54000000E+00           0.00000000E+00
  -0.53000000E+00           0.00000000E+00
  -0.52000000E+00           0.00000000E+00
  -0.51000000E+00           0.00000000E+00
  -0.50000000E+00           0.00000000E+00
  -0.49000000E+00           0.00000000E+00
  -0.48000000E+00           0.00000000E+00
  -0.47000000E+00           0.00000000E+00
  -0.46000000E+00           0.00000000E+00
  -0.45000000E+00           0.00000000E+00
  -0.44000000E+00           0.00000000E+00
  -0.43000000E+00           0.00000000E+00
  -0.42000000E+00           0.00000000E+00
  -0.41000000E+00           0.00000000E+00
  -0.40000000E+00           0.00000000E+00
  -0.39000000E+00           0.00000000E+00
  -0.38000000E+00           0.00000000E+00
  -0.37000000E+00           0.00000000E+00
  -0.36000000E+00           0.00000000E+00
  -0.35000000E+00           0.00000000E+00
  -0.34000000E+00           0.00000000E+00
  -0.33000000E+00           0.00000000E+00
  -0.32000000E+00           0.00000000E+00
  -0.31000000E+00           0.00000000E+00
  -0.30000000E+00           0.00000000E+00
  -0.29000000E+00           0.00000000E+00
  -0.28000000E+00           0.00000000E+00
  -0.27000000E+00           0.00000000E+00
  -0.26000000E+00           0.00000000E+00
  -0.25000000E+00           0.00000000E+00
  -0.24000000E+00           0.00000000E+00
  -0.23000000E+00           0.00000000E+00
  -0.22000000E+00           0.00000000E+00
  -0.21000000E+00           0.00000000E+00
  -0.20000000E+00           0.00000000E+00
  -0.19000000E+00           0.00000000E+00
  -0.18000000E+00           0.00000000E+00
  -0.17000000E+00           0.00000000E+00
  -0.16000000E+00           0.00000000E+00
  -0.15000000E+00           0.00000000E+00
  -0.14000000E+00           0.00000000E+00
  -0.13000000E+00           0.00000000E+00
  -0.12000000E+00           0.00000000E+00
  -0.11000000E+00           0.00000000E+00
  -0.10000000E+00           0.00000000E+00
  -0.90000000E-01           0.00000000E+00
  -0.80000000E-01           0.00000000E+00
  -0.70000000E-01           0.00000000E+00
  -0.60000000E-01           0.00000000E+00
  -0.50000000E-01           0.00000000E+00
  -0.40000000E-01           0.00000000E+00
  -0.30000000E-01           0.00000000E+00
  -0.20000000E-01           0.00000000E+00
  -0.10000000E-01           0.00000000E+00
   0.00000000E+00           0.20021701E-02
   0.10000000E-01           0.48052865E-01
   0.20000000E-01           0.16578663E+00
   0.30000000E-01           0.33714262E+00
   0.40000000E-01           0.54293837E+00
   0.50000000E-01           0.77256727E+00
   0.60000000E-01           0.10153747E+01
   0.70000000E-01           0.12587661E+01
   0.80000000E-01           0.15012410E+01
   0.90000000E-01           0.17364838E+01
   0.10000000E+00           0.19571484E+01
   0.11000000E+00           0.21583495E+01
   0.12000000E+00           0.23466688E+01
   0.13000000E+00           0.25160248E+01
   0.14000000E+00           0.26681673E+01
   0.15000000E+00           0.27946941E+01
   0.16000000E+00           0.28976251E+01
   0.17000000E+00           0.29806576E+01
   0.18000000E+00           0.30509042E+01
   0.19000000E+00           0.30923025E+01
   0.20000000E+00           0.31175610E+01
   0.21000000E+00           0.31259931E+01
   0.22000000E+00           0.31181485E+01
   0.23000000E+00           0.30916096E+01
   0.24000000E+00           0.30544701E+01
   0.25000000E+00           0.29989615E+01
   0.26000000E+00           0.29341685E+01
   0.27000000E+00           0.28605016E+01
   0.28000000E+00           0.27741399E+01
   0.29000000E+00           0.26816353E+01
   0.30000000E+00           0.25839884E+01
   0.31000000E+00           0.24759141E+01
   0.32000000E+00           0.23631986E+01
   0.33000000E+00           0.22538735E+01
   0.34000000E+00           0.21389731E+01
   0.35000000E+00           0.20242864E+01
   0.36000000E+00           0.19089998E+01
   0.37000000E+00           0.17920422E+01
   0.38000000E+00           0.16809834E+01
   0.39000000E+00           0.15686569E+01
   0.40000000E+00           0.14600321E+01
   0.41000000E+00           0.13554190E+01
   0.42000000E+00           0.12523729E+01
   0.43000000E+00           0.11568716E+01
   0.44000000E+00           0.10629532E+01
   0.45000000E+00           0.97548880E+00
   0.46000000E+00           0.89019132E+00
   0.47000000E+00           0.81124887E+00
   0.48000000E+00           0.73817656E+00
   0.49000000E+00           0.66860703E+00
   0.50000000E+00           0.60488785E+00
   0.51000000E+00           0.54473759E+00
   0.52000000E+00           0.48930668E+00
   0.53000000E+00           0.43782161E+00
   0.54000000E+00           0.39170148E+00
   0.55000000E+00           0.34846571E+00
   0.56000000E+00           0.31051736E+00
   0.57000000E+00           0.27558845E+00
   0.58000000E+00           0.24292483E+00
   0.59000000E+00           0.21404141E+00
   0.60000000E+00           0.18816380E+00
   0.61000000E+00           0.16493611E+00
   0.62000000E+00           0.14418316E+00
   0.63000000E+00           0.12628741E+00
   0.64000000E+00           0.10938437E+00
   0.65000000E+00           0.94867187E-01
   0.66000000E+00           0.82305816E-01
   0.67000000E+00           0.70986372E-01
   0.68000000E+00           0.61012066E-01
   0.69000000E+00           0.52239757E-01
   0.70000000E+00           0.44605122E-01
   0.71000000E+00           0.38249826E-01
   0.72000000E+00           0.32432378E-01
   0.73000000E+00           0.27428212E-01
   0.74000000E+00           0.23087760E-01
   0.75000000E+00           0.19777431E-01
   0.76000000E+00           0.16636892E-01
   0.77000000E+00           0.13913021E-01
   0.78000000E+00           0.11674045E-01
   0.79000000E+00           0.98089410E-02
   0.80000000E+00           0.81326389E-02
   0.81000000E+00           0.66844618E-02
   0.82000000E+00           0.56285590E-02
   0.83000000E+00           0.46532118E-02
   0.84000000E+00           0.38304688E-02
   0.85000000E+00           0.31560764E-02
   0.86000000E+00           0.25450521E-02
   0.87000000E+00           0.21516493E-02
   0.88000000E+00           0.17284722E-02
   0.89000000E+00           0.14201389E-02
   0.90000000E+00           0.11446181E-02
   0.91000000E+00           0.89852431E-03
   0.92000000E+00           0.73750000E-03
   0.93000000E+00           0.59843750E-03
   0.94000000E+00           0.50086806E-03
   0.95000000E+00           0.38923611E-03
   0.96000000E+00           0.31145833E-03
   0.97000000E+00           0.24878472E-03
   0.98000000E+00           0.19401042E-03
   0.99000000E+00           0.15373264E-03
   0.10000000E+01           0.11996528E-03
   0.10100000E+01           0.97656250E-04
   0.10200000E+01           0.77951389E-04
   0.10300000E+01           0.58159722E-04
   0.10400000E+01           0.44618056E-04
   0.10500000E+01           0.41232639E-04
   0.10600000E+01           0.26909722E-04
   0.10700000E+01           0.20399306E-04
   0.10800000E+01           0.17100694E-04
   0.10900000E+01           0.91145833E-05
   0.11000000E+01           0.92881944E-05
   0.11100000E+01           0.72916667E-05
   0.11200000E+01           0.32986111E-05
   0.11300000E+01           0.58159722E-05
   0.11400000E+01           0.31250000E-05
   0.11500000E+01           0.32118056E-05
   0.11600000E+01           0.14756944E-05
   0.11700000E+01           0.24305556E-05
   0.11800000E+01           0.11284722E-05
   0.11900000E+01           0.95486111E-06
   0.12000000E+01           0.86805556E-06
   0.12100000E+01           0.26041667E-06
   0.12200000E+01           0.86805556E-06
   0.12300000E+01           0.34722222E-06
   0.12400000E+01           0.17361111E-06
   0.12500000E+01           0.26041667E-06
   0.12600000E+01           0.00000000E+00
   0.12700000E+01           0.00000000E+00
   0.12800000E+01           0.00000000E+00
   0.12900000E+01           0.00000000E+00
   0.13000000E+01           0.26041667E-06
   0.13100000E+01           0.00000000E+00
   0.13200000E+01           0.26041667E-06
   0.13300000E+01           0.00000000E+00
   0.13400000E+01           0.00000000E+00
   0.13500000E+01           0.00000000E+00
   0.13600000E+01           0.86805556E-07
   0.13700000E+01           0.00000000E+00
   0.13800000E+01           0.00000000E+00
   0.13900000E+01           0.00000000E+00
   0.14000000E+01           0.00000000E+00
   0.14100000E+01           0.00000000E+00
   0.14200000E+01           0.00000000E+00
   0.14300000E+01           0.00000000E+00
   0.14400000E+01           0.00000000E+00
   0.14500000E+01           0.00000000E+00
   0.14600000E+01           0.00000000E+00
   0.14700000E+01           0.00000000E+00
   0.14800000E+01           0.00000000E+00
   0.14900000E+01           0.00000000E+00
   0.15000000E+01           0.00000000E+00
   0.15100000E+01           0.00000000E+00
   0.15200000E+01           0.00000000E+00
   0.15300000E+01           0.00000000E+00
   0.15400000E+01           0.86805556E-07
   0.15500000E+01           0.00000000E+00
   0.15600000E+01           0.00000000E+00
   0.15700000E+01           0.00000000E+00
   0.15800000E+01           0.00000000E+00
   0.15900000E+01           0.00000000E+00
   0.16000000E+01           0.00000000E+00
   0.16100000E+01           0.00000000E+00
   0.16200000E+01           0.00000000E+00
   0.16300000E+01           0.00000000E+00
   0.16400000E+01           0.00000000E+00
   0.16500000E+01           0.00000000E+00
   0.16600000E+01           0.00000000E+00
   0.16700000E+01           0.00000000E+00
   0.16800000E+01           0.00000000E+00
   0.16900000E+01           0.00000000E+00
   0.17000000E+01           0.00000000E+00
   0.17100000E+01           0.00000000E+00
   0.17200000E+01           0.00000000E+00
   0.17300000E+01           0.00000000E+00
   0.17400000E+01           0.00000000E+00
   0.17500000E+01           0.00000000E+00
   0.17600000E+01           0.00000000E+00
   0.17700000E+01           0.00000000E+00
   0.17800000E+01           0.00000000E+00
   0.17900000E+01           0.00000000E+00
   0.18000000E+01           0.00000000E+00
   0.18100000E+01           0.00000000E+00
   0.18200000E+01           0.00000000E+00
   0.18300000E+01           0.00000000E+00
   0.18400000E+01           0.00000000E+00
   0.18500000E+01           0.00000000E+00
   0.18600000E+01           0.00000000E+00
   0.18700000E+01           0.00000000E+00
   0.18800000E+01           0.00000000E+00
   0.18900000E+01           0.00000000E+00
   0.19000000E+01           0.00000000E+00
   0.19100000E+01           0.86805556E-07
   0.19200000E+01           0.00000000E+00
   0.19300000E+01           0.00000000E+00
   0.19400000E+01           0.00000000E+00
   0.19500000E+01           0.00000000E+00
   0.19600000E+01           0.00000000E+00
   0.19700000E+01           0.00000000E+00
   0.19800000E+01           0.00000000E+00
   0.19900000E+01           0.00000000E+00
   0.20000000E+01           0.00000000E+00
   0.20100000E+01           0.00000000E+00
   0.20200000E+01           0.00000000E+00
   0.20300000E+01           0.00000000E+00
   0.20400000E+01           0.00000000E+00
   0.20500000E+01           0.00000000E+00
   0.20600000E+01           0.00000000E+00
   0.20700000E+01           0.00000000E+00
   0.20800000E+01           0.00000000E+00
   0.20900000E+01           0.00000000E+00
   0.21000000E+01           0.00000000E+00
   0.21100000E+01           0.00000000E+00
   0.21200000E+01           0.00000000E+00
   0.21300000E+01           0.00000000E+00
   0.21400000E+01           0.00000000E+00
   0.21500000E+01           0.00000000E+00
   0.21600000E+01           0.00000000E+00
   0.21700000E+01           0.00000000E+00
   0.21800000E+01           0.00000000E+00
   0.21900000E+01           0.00000000E+00
   0.22000000E+01           0.00000000E+00
   0.22100000E+01           0.00000000E+00
   0.22200000E+01           0.00000000E+00
   0.22300000E+01           0.00000000E+00
   0.22400000E+01           0.00000000E+00
   0.22500000E+01           0.00000000E+00
   0.22600000E+01           0.00000000E+00
   0.22700000E+01           0.00000000E+00
   0.22800000E+01           0.00000000E+00
   0.22900000E+01           0.00000000E+00
   0.23000000E+01           0.00000000E+00
   0.23100000E+01           0.00000000E+00
   0.23200000E+01           0.00000000E+00
   0.23300000E+01           0.00000000E+00
   0.23400000E+01           0.00000000E+00
   0.23500000E+01           0.00000000E+00
   0.23600000E+01           0.00000000E+00
   0.23700000E+01           0.00000000E+00
   0.23800000E+01           0.00000000E+00
   0.23900000E+01           0.00000000E+00
   0.24000000E+01           0.00000000E+00
   0.24100000E+01           0.00000000E+00
   0.24200000E+01           0.00000000E+00
   0.24300000E+01           0.00000000E+00
   0.24400000E+01           0.00000000E+00
   0.24500000E+01           0.00000000E+00
   0.24600000E+01           0.00000000E+00
   0.24700000E+01           0.00000000E+00
   0.24800000E+01           0.00000000E+00
   0.24900000E+01           0.00000000E+00
   0.25000000E+01           0.00000000E+00
   0.25100000E+01           0.00000000E+00
   0.25200000E+01           0.00000000E+00
   0.25300000E+01           0.00000000E+00
   0.25400000E+01           0.00000000E+00
   0.25500000E+01           0.00000000E+00
   0.25600000E+01           0.00000000E+00
   0.25700000E+01           0.00000000E+00
   0.25800000E+01           0.00000000E+00
   0.25900000E+01           0.00000000E+00
   0.26000000E+01           0.00000000E+00
   0.26100000E+01           0.00000000E+00
   0.26200000E+01           0.00000000E+00
   0.26300000E+01           0.00000000E+00
   0.26400000E+01           0.00000000E+00
   0.26500000E+01           0.00000000E+00
   0.26600000E+01           0.00000000E+00
   0.26700000E+01           0.00000000E+00
   0.26800000E+01           0.00000000E+00
   0.26900000E+01           0.00000000E+00
   0.27000000E+01           0.00000000E+00
   0.27100000E+01           0.00000000E+00
   0.27200000E+01           0.00000000E+00
   0.27300000E+01           0.00000000E+00
   0.27400000E+01           0.00000000E+00
   0.27500000E+01           0.00000000E+00
   0.27600000E+01           0.00000000E+00
   0.27700000E+01           0.00000000E+00
   0.27800000E+01           0.00000000E+00
   0.27900000E+01           0.00000000E+00
   0.28000000E+01           0.00000000E+00
   0.28100000E+01           0.00000000E+00
   0.28200000E+01           0.00000000E+00
   0.28300000E+01           0.00000000E+00
   0.28400000E+01           0.00000000E+00
   0.28500000E+01           0.00000000E+00
   0.28600000E+01           0.00000000E+00
   0.28700000E+01           0.00000000E+00
   0.28800000E+01           0.00000000E+00
   0.28900000E+01           0.00000000E+00
   0.29000000E+01           0.00000000E+00
   0.29100000E+01           0.00000000E+00
   0.29200000E+01           0.00000000E+00
   0.29300000E+01           0.00000000E+00
   0.29400000E+01           0.00000000E+00
   0.29500000E+01           0.00000000E+00
   0.29600000E+01           0.00000000E+00
   0.29700000E+01           0.00000000E+00
   0.29800000E+01           0.00000000E+00
   0.29900000E+01           0.00000000E+00
   0.30000000E+01           0.00000000E+00
   0.30100000E+01           0.00000000E+00
   0.30200000E+01           0.00000000E+00
   0.30300000E+01           0.00000000E+00
   0.30400000E+01           0.00000000E+00
   0.30500000E+01           0.00000000E+00
   0.30600000E+01           0.00000000E+00
   0.30700000E+01           0.00000000E+00
   0.30800000E+01           0.00000000E+00
   0.30900000E+01           0.00000000E+00
   0.31000000E+01           0.00000000E+00
   0.31100000E+01           0.00000000E+00
   0.31200000E+01           0.00000000E+00
   0.31300000E+01           0.00000000E+00
   0.31400000E+01           0.00000000E+00
   0.31500000E+01           0.00000000E+00
   0.31600000E+01           0.00000000E+00
   0.31700000E+01           0.00000000E+00
   0.31800000E+01           0.00000000E+00
   0.31900000E+01           0.00000000E+00
   0.32000000E+01           0.00000000E+00
   0.32100000E+01           0.00000000E+00
   0.32200000E+01           0.00000000E+00
   0.32300000E+01           0.00000000E+00
   0.32400000E+01           0.00000000E+00
   0.32500000E+01           0.00000000E+00
   0.32600000E+01           0.00000000E+00
   0.32700000E+01           0.00000000E+00
   0.32800000E+01           0.00000000E+00
   0.32900000E+01           0.00000000E+00
   0.33000000E+01           0.00000000E+00
   0.33100000E+01           0.00000000E+00
   0.33200000E+01           0.00000000E+00
   0.33300000E+01           0.00000000E+00
   0.33400000E+01           0.00000000E+00
   0.33500000E+01           0.00000000E+00
   0.33600000E+01           0.00000000E+00
   0.33700000E+01           0.00000000E+00
   0.33800000E+01           0.00000000E+00
   0.33900000E+01           0.00000000E+00
   0.34000000E+01           0.00000000E+00
   0.34100000E+01           0.00000000E+00
   0.34200000E+01           0.00000000E+00
   0.34300000E+01           0.00000000E+00
   0.34400000E+01           0.00000000E+00
   0.34500000E+01           0.00000000E+00
   0.34600000E+01           0.00000000E+00
   0.34700000E+01           0.00000000E+00
   0.34800000E+01           0.00000000E+00
   0.34900000E+01           0.00000000E+00
   0.35000000E+01           0.00000000E+00
   0.35100000E+01           0.00000000E+00
   0.35200000E+01           0.00000000E+00
   0.35300000E+01           0.00000000E+00
   0.35400000E+01           0.00000000E+00
   0.35500000E+01           0.00000000E+00
   0.35600000E+01           0.00000000E+00
   0.35700000E+01           0.00000000E+00
   0.35800000E+01           0.00000000E+00
   0.35900000E+01           0.00000000E+00
   0.36000000E+01           0.00000000E+00
   0.36100000E+01           0.00000000E+00
   0.36200000E+01           0.00000000E+00
   0.36300000E+01           0.00000000E+00
   0.36400000E+01           0.00000000E+00
   0.36500000E+01           0.00000000E+00
   0.36600000E+01           0.00000000E+00
   0.36700000E+01           0.00000000E+00
   0.36800000E+01           0.00000000E+00
   0.36900000E+01           0.00000000E+00
   0.37000000E+01           0.00000000E+00
   0.37100000E+01           0.00000000E+00
   0.37200000E+01           0.00000000E+00
   0.37300000E+01           0.00000000E+00
   0.37400000E+01           0.00000000E+00
   0.37500000E+01           0.00000000E+00
   0.37600000E+01           0.00000000E+00
   0.37700000E+01           0.00000000E+00
   0.37800000E+01           0.00000000E+00
   0.37900000E+01           0.00000000E+00
   0.38000000E+01           0.00000000E+00
   0.38100000E+01           0.00000000E+00
   0.38200000E+01           0.00000000E+00
   0.38300000E+01           0.00000000E+00
   0.38400000E+01           0.00000000E+00
   0.38500000E+01           0.00000000E+00
   0.38600000E+01           0.00000000E+00
   0.38700000E+01           0.00000000E+00
   0.38800000E+01           0.00000000E+00
   0.38900000E+01           0.00000000E+00
   0.39000000E+01           0.00000000E+00
   0.39100000E+01           0.00000000E+00
   0.39200000E+01           0.00000000E+00
   0.39300000E+01           0.00000000E+00
   0.39400000E+01           0.00000000E+00
   0.39500000E+01           0.00000000E+00
   0.39600000E+01           0.00000000E+00
   0.39700000E+01           0.00000000E+00
   0.39800000E+01           0.00000000E+00
   0.39900000E+01           0.00000000E+00
   0.40000000E+01           0.00000000E+00
 #T=     5.0476
  -0.40000000E+01           0.00000000E+00
  -0.39900000E+01           0.00000000E+00
  -0.39800000E+01           0.00000000E+00
  -0.39700000E+01           0.00000000E+00
  -0.39600000E+01           0.00000000E+00
  -0.39500000E+01           0.00000000E+00
  -0.39400000E+01           0.00000000E+00
  -0.39300000E+01           0.00000000E+00
  -0.39200000E+01           0.00000000E+00
  -0.39100000E+01           0.00000000E+00
  -0.39000000E+01           0.00000000E+00
  -0.38900000E+01           0.00000000E+00
  -0.38800000E+01           0.00000000E+00
  -0.38700000E+01           0.00000000E+00
  -0.38600000E+01           0.00000000E+00
  -0.38500000E+01           0.00000000E+00
  -0.38400000E+01           0.00000000E+00
  -0.38300000E+01           0.00000000E+00
  -0.38200000E+01           0.00000000E+00
  -0.38100000E+01           0.00000000E+00
  -0.38000000E+01           0.00000000E+00
  -0.37900000E+01           0.00000000E+00
  -0.37800000E+01           0.00000000E+00
  -0.37700000E+01           0.00000000E+00
  -0.37600000E+01           0.00000000E+00
  -0.37500000E+01           0.00000000E+00
  -0.37400000E+01           0.00000000E+00
  -0.37300000E+01           0.00000000E+00
  -0.37200000E+01           0.00000000E+00
  -0.37100000E+01           0.00000000E+00
  -0.37000000E+01           0.00000000E+00
  -0.36900000E+01           0.00000000E+00
  -0.36800000E+01           0.00000000E+00
  -0.36700000E+01           0.00000000E+00
  -0.36600000E+01           0.00000000E+00
  -0.36500000E+01           0.00000000E+00
  -0.36400000E+01           0.00000000E+00
  -0.36300000E+01           0.00000000E+00
  -0.36200000E+01           0.00000000E+00
  -0.36100000E+01           0.00000000E+00
  -0.36000000E+01           0.00000000E+00
  -0.35900000E+01           0.00000000E+00
  -0.35800000E+01           0.00000000E+00
  -0.35700000E+01           0.00000000E+00
  -0.35600000E+01           0.00000000E+00
  -0.35500000E+01           0.00000000E+00
  -0.35400000E+01           0.00000000E+00
  -0.35300000E+01           0.00000000E+00
  -0.35200000E+01           0.00000000E+00
  -0.35100000E+01           0.00000000E+00
  -0.35000000E+01           0.00000000E+00
  -0.34900000E+01           0.00000000E+00
  -0.34800000E+01           0.00000000E+00
  -0.34700000E+01           0.00000000E+00
  -0.34600000E+01           0.00000000E+00
  -0.34500000E+01           0.00000000E+00
  -0.34400000E+01           0.00000000E+00
  -0.34300000E+01           0.00000000E+00
  -0.34200000E+01           0.00000000E+00
  -0.34100000E+01           0.00000000E+00
  -0.34000000E+01           0.00000000E+00
  -0.33900000E+01           0.00000000E+00
  -0.33800000E+01           0.00000000E+00
  -0.33700000E+01           0.00000000E+00
  -0.33600000E+01           0.00000000E+00
  -0.33500000E+01           0.00000000E+00
  -0.33400000E+01           0.00000000E+00
  -0.33300000E+01           0.00000000E+00
  -0.33200000E+01           0.00000000E+00
  -0.33100000E+01           0.00000000E+00
  -0.33000000E+01           0.00000000E+00
  -0.32900000E+01           0.00000000E+00
  -0.32800000E+01           0.00000000E+00
  -0.32700000E+01           0.00000000E+00
  -0.32600000E+01           0.00000000E+00
  -0.32500000E+01           0.00000000E+00
  -0.32400000E+01           0.00000000E+00
  -0.32300000E+01           0.00000000E+00
  -0.32200000E+01           0.00000000E+00
  -0.32100000E+01           0.00000000E+00
  -0.32000000E+01           0.00000000E+00
  -0.31900000E+01           0.00000000E+00
  -0.31800000E+01           0.00000000E+00
  -0.31700000E+01           0.00000000E+00
  -0.31600000E+01           0.00000000E+00
  -0.31500000E+01           0.00000000E+00
  -0.31400000E+01           0.00000000E+00
  -0.31300000E+01           0.00000000E+00
  -0.31200000E+01           0.00000000E+00
  -0.31100000E+01           0.00000000E+00
  -0.31000000E+01           0.00000000E+00
  -0.30900000E+01           0.00000000E+00
  -0.30800000E+01           0.00000000E+00
  -0.30700000E+01           0.00000000E+00
  -0.30600000E+01           0.00000000E+00
  -0.30500000E+01           0.00000000E+00
  -0.30400000E+01           0.00000000E+00
  -0.30300000E+01           0.00000000E+00
  -0.30200000E+01           0.00000000E+00
  -0.30100000E+01           0.00000000E+00
  -0.30000000E+01           0.00000000E+00
  -0.29900000E+01           0.00000000E+00
  -0.29800000E+01           0.00000000E+00
  -0.29700000E+01           0.00000000E+00
  -0.29600000E+01           0.00000000E+00
  -0.29500000E+01           0.00000000E+00
  -0.29400000E+01           0.00000000E+00
  -0.29300000E+01           0.00000000E+00
  -0.29200000E+01           0.00000000E+00
  -0.29100000E+01           0.00000000E+00
  -0.29000000E+01           0.00000000E+00
  -0.28900000E+01           0.00000000E+00
  -0.28800000E+01           0.00000000E+00
  -0.28700000E+01           0.00000000E+00
  -0.28600000E+01           0.00000000E+00
  -0.28500000E+01           0.00000000E+00
  -0.28400000E+01           0.00000000E+00
  -0.28300000E+01           0.00000000E+00
  -0.28200000E+01           0.00000000E+00
  -0.28100000E+01           0.00000000E+00
  -0.28000000E+01           0.00000000E+00
  -0.27900000E+01           0.00000000E+00
  -0.27800000E+01           0.00000000E+00
  -0.27700000E+01           0.00000000E+00
  -0.27600000E+01           0.00000000E+00
  -0.27500000E+01           0.00000000E+00
  -0.27400000E+01           0.00000000E+00
  -0.27300000E+01           0.00000000E+00
  -0.27200000E+01           0.00000000E+00
  -0.27100000E+01           0.00000000E+00
  -0.27000000E+01           0.00000000E+00
  -0.26900000E+01           0.00000000E+00
  -0.26800000E+01           0.00000000E+00
  -0.26700000E+01           0.00000000E+00
  -0.26600000E+01           0.00000000E+00
  -0.26500000E+01           0.00000000E+00
  -0.26400000E+01           0.00000000E+00
  -0.26300000E+01           0.00000000E+00
  -0.26200000E+01           0.00000000E+00
  -0.26100000E+01           0.00000000E+00
  -0.26000000E+01           0.00000000E+00
  -0.25900000E+01           0.00000000E+00
  -0.25800000E+01           0.00000000E+00
  -0.25700000E+01           0.00000000E+00
  -0.25600000E+01           0.00000000E+00
  -0.25500000E+01           0.00000000E+00
  -0.25400000E+01           0.00000000E+00
  -0.25300000E+01           0.00000000E+00
  -0.25200000E+01           0.00000000E+00
  -0.25100000E+01           0.00000000E+00
  -0.25000000E+01           0.00000000E+00
  -0.24900000E+01           0.00000000E+00
  -0.24800000E+01           0.00000000E+00
  -0.24700000E+01           0.00000000E+00
  -0.24600000E+01           0.00000000E+00
  -0.24500000E+01           0.00000000E+00
  -0.24400000E+01           0.00000000E+00
  -0.24300000E+01           0.00000000E+00
  -0.24200000E+01           0.00000000E+00
  -0.24100000E+01           0.00000000E+00
  -0.24000000E+01           0.00000000E+00
  -0.23900000E+01           0.00000000E+00
  -0.23800000E+01           0.00000000E+00
  -0.23700000E+01           0.00000000E+00
  -0.23600000E+01           0.00000000E+00
  -0.23500000E+01           0.00000000E+00
  -0.23400000E+01           0.00000000E+00
  -0.23300000E+01           0.00000000E+00
  -0.23200000E+01           0.00000000E+00
  -0.23100000E+01           0.00000000E+00
  -0.23000000E+01           0.00000000E+00
  -0.22900000E+01           0.00000000E+00
  -0.22800000E+01           0.00000000E+00
  -0.22700000E+01           0.00000000E+00
  -0.22600000E+01           0.00000000E+00
  -0.22500000E+01           0.00000000E+00
  -0.22400000E+01           0.00000000E+00
  -0.22300000E+01           0.00000000E+00
  -0.22200000E+01           0.00000000E+00
  -0.22100000E+01           0.00000000E+00
  -0.22000000E+01           0.00000000E+00
  -0.21900000E+01           0.00000000E+00
  -0.21800000E+01           0.00000000E+00
  -0.21700000E+01           0.00000000E+00
  -0.21600000E+01           0.00000000E+00
  -0.21500000E+01           0.00000000E+00
  -0.21400000E+01           0.00000000E+00
  -0.21300000E+01           0.00000000E+00
  -0.21200000E+01           0.00000000E+00
  -0.21100000E+01           0.00000000E+00
  -0.21000000E+01           0.00000000E+00
  -0.20900000E+01           0.00000000E+00
  -0.20800000E+01           0.00000000E+00
  -0.20700000E+01           0.00000000E+00
  -0.20600000E+01           0.00000000E+00
  -0.20500000E+01           0.00000000E+00
  -0.20400000E+01           0.00000000E+00
  -0.20300000E+01           0.00000000E+00
  -0.20200000E+01           0.00000000E+00
  -0.20100000E+01           0.00000000E+00
  -0.20000000E+01           0.00000000E+00
  -0.19900000E+01           0.00000000E+00
  -0.19800000E+01           0.00000000E+00
  -0.19700000E+01           0.00000000E+00
  -0.19600000E+01           0.00000000E+00
  -0.19500000E+01           0.00000000E+00
  -0.19400000E+01           0.00000000E+00
  -0.19300000E+01           0.00000000E+00
  -0.19200000E+01           0.00000000E+00
  -0.19100000E+01           0.00000000E+00
  -0.19000000E+01           0.00000000E+00
  -0.18900000E+01           0.00000000E+00
  -0.18800000E+01           0.00000000E+00
  -0.18700000E+01           0.00000000E+00
  -0.18600000E+01           0.00000000E+00
  -0.18500000E+01           0.00000000E+00
  -0.18400000E+01           0.00000000E+00
  -0.18300000E+01           0.00000000E+00
  -0.18200000E+01           0.00000000E+00
  -0.18100000E+01           0.00000000E+00
  -0.18000000E+01           0.00000000E+00
  -0.17900000E+01           0.00000000E+00
  -0.17800000E+01           0.00000000E+00
  -0.17700000E+01           0.00000000E+00
  -0.17600000E+01           0.00000000E+00
  -0.17500000E+01           0.00000000E+00
  -0.17400000E+01           0.00000000E+00
  -0.17300000E+01           0.00000000E+00
  -0.17200000E+01           0.00000000E+00
  -0.17100000E+01           0.00000000E+00
  -0.17000000E+01           0.00000000E+00
  -0.16900000E+01           0.00000000E+00
  -0.16800000E+01           0.00000000E+00
  -0.16700000E+01           0.00000000E+00
  -0.16600000E+01           0.00000000E+00
  -0.16500000E+01           0.00000000E+00
  -0.16400000E+01           0.00000000E+00
  -0.16300000E+01           0.00000000E+00
  -0.16200000E+01           0.00000000E+00
  -0.16100000E+01           0.00000000E+00
  -0.16000000E+01           0.00000000E+00
  -0.15900000E+01           0.00000000E+00
  -0.15800000E+01           0.00000000E+00
  -0.15700000E+01           0.00000000E+00
  -0.15600000E+01           0.00000000E+00
  -0.15500000E+01           0.00000000E+00
  -0.15400000E+01           0.00000000E+00
  -0.15300000E+01           0.00000000E+00
  -0.15200000E+01           0.00000000E+00
  -0.15100000E+01           0.00000000E+00
  -0.15000000E+01           0.00000000E+00
  -0.14900000E+01           0.00000000E+00
  -0.14800000E+01           0.00000000E+00
  -0.14700000E+01           0.00000000E+00
  -0.14600000E+01           0.00000000E+00
  -0.14500000E+01           0.00000000E+00
  -0.14400000E+01           0.00000000E+00
  -0.14300000E+01           0.00000000E+00
  -0.14200000E+01           0.00000000E+00
  -0.14100000E+01           0.00000000E+00
  -0.14000000E+01           0.00000000E+00
  -0.13900000E+01           0.00000000E+00
  -0.13800000E+01           0.00000000E+00
  -0.13700000E+01           0.00000000E+00
  -0.13600000E+01           0.00000000E+00
  -0.13500000E+01           0.00000000E+00
  -0.13400000E+01           0.00000000E+00
  -0.13300000E+01           0.00000000E+00
  -0.13200000E+01           0.00000000E+00
  -0.13100000E+01           0.00000000E+00
  -0.13000000E+01           0.00000000E+00
  -0.12900000E+01           0.00000000E+00
  -0.12800000E+01           0.00000000E+00
  -0.12700000E+01           0.00000000E+00
  -0.12600000E+01           0.00000000E+00
  -0.12500000E+01           0.00000000E+00
  -0.12400000E+01           0.00000000E+00
  -0.12300000E+01           0.00000000E+00
  -0.12200000E+01           0.00000000E+00
  -0.12100000E+01           0.00000000E+00
  -0.12000000E+01           0.00000000E+00
  -0.11900000E+01           0.00000000E+00
  -0.11800000E+01           0.00000000E+00
  -0.11700000E+01           0.00000000E+00
  -0.11600000E+01           0.00000000E+00
  -0.11500000E+01           0.00000000E+00
  -0.11400000E+01           0.00000000E+00
  -0.11300000E+01           0.00000000E+00
  -0.11200000E+01           0.00000000E+00
  -0.11100000E+01           0.00000000E+00
  -0.11000000E+01           0.00000000E+00
  -0.10900000E+01           0.00000000E+00
  -0.10800000E+01           0.00000000E+00
  -0.10700000E+01           0.00000000E+00
  -0.10600000E+01           0.00000000E+00
  -0.10500000E+01           0.00000000E+00
  -0.10400000E+01           0.00000000E+00
  -0.10300000E+01           0.00000000E+00
  -0.10200000E+01           0.00000000E+00
  -0.10100000E+01           0.00000000E+00
  -0.10000000E+01           0.00000000E+00
  -0.99000000E+00           0.00000000E+00
  -0.98000000E+00           0.00000000E+00
  -0.97000000E+00           0.00000000E+00
  -0.96000000E+00           0.00000000E+00
  -0.95000000E+00           0.00000000E+00
  -0.94000000E+00           0.00000000E+00
  -0.93000000E+00           0.00000000E+00
  -0.92000000E+00           0.00000000E+00
  -0.91000000E+00           0.00000000E+00
  -0.90000000E+00           0.00000000E+00
  -0.89000000E+00           0.00000000E+00
  -0.88000000E+00           0.00000000E+00
  -0.87000000E+00           0.00000000E+00
  -0.86000000E+00           0.00000000E+00
  -0.85000000E+00           0.00000000E+00
  -0.84000000E+00           0.00000000E+00
  -0.83000000E+00           0.00000000E+00
  -0.82000000E+00           0.00000000E+00
  -0.81000000E+00           0.00000000E+00
  -0.80000000E+00           0.00000000E+00
  -0.79000000E+00           0.00000000E+00
  -0.78000000E+00           0.00000000E+00
  -0.77000000E+00           0.00000000E+00
  -0.76000000E+00           0.00000000E+00
  -0.75000000E+00           0.00000000E+00
  -0.74000000E+00           0.00000000E+00
  -0.73000000E+00           0.00000000E+00
  -0.72000000E+00           0.00000000E+00
  -0.71000000E+00           0.00000000E+00
  -0.70000000E+00           0.00000000E+00
  -0.69000000E+00           0.00000000E+00
  -0.68000000E+00           0.00000000E+00
  -0.67000000E+00           0.00000000E+00
  -0.66000000E+00           0.00000000E+00
  -0.65000000E+00           0.00000000E+00
  -0.64000000E+00           0.00000000E+00
  -0.63000000E+00           0.00000000E+00
  -0.62000000E+00           0.00000000E+00
  -0.61000000E+00           0.00000000E+00
  -0.60000000E+00           0.00000000E+00
  -0.59000000E+00           0.00000000E+00
  -0.58000000E+00           0.00000000E+00
  -0.57000000E+00           0.00000000E+00
  -0.56000000E+00           0.00000000E+00
  -0.55000000E+00           0.00000000E+00
  -0.54000000E+00           0.00000000E+00
  -0.53000000E+00           0.00000000E+00
  -0.52000000E+00           0.00000000E+00
  -0.51000000E+00           0.00000000E+00
  -0.50000000E+00           0.00000000E+00
  -0.49000000E+00           0.00000000E+00
  -0.48000000E+00           0.00000000E+00
  -0.47000000E+00           0.00000000E+00
  -0.46000000E+00           0.00000000E+00
  -0.45000000E+00           0.00000000E+00
  -0.44000000E+00           0.00000000E+00
  -0.43000000E+00           0.00000000E+00
  -0.42000000E+00           0.00000000E+00
  -0.41000000E+00           0.00000000E+00
  -0.40000000E+00           0.00000000E+00
  -0.39000000E+00           0.00000000E+00
  -0.38000000E+00           0.00000000E+00
  -0.37000000E+00           0.00000000E+00
  -0.36000000E+00           0.00000000E+00
  -0.35000000E+00           0.00000000E+00
  -0.34000000E+00           0.00000000E+00
  -0.33000000E+00           0.00000000E+00
  -0.32000000E+00           0.00000000E+00
  -0.31000000E+00           0.00000000E+00
  -0.30000000E+00           0.00000000E+00
  -0.29000000E+00           0.00000000E+00
  -0.28000000E+00           0.00000000E+00
  -0.27000000E+00           0.00000000E+00
  -0.26000000E+00           0.00000000E+00
  -0.25000000E+00           0.00000000E+00
  -0.24000000E+00           0.00000000E+00
  -0.23000000E+00           0.00000000E+00
  -0.22000000E+00           0.00000000E+00
  -0.21000000E+00           0.00000000E+00
  -0.20000000E+00           0.00000000E+00
  -0.19000000E+00           0.00000000E+00
  -0.18000000E+00           0.00000000E+00
  -0.17000000E+00           0.00000000E+00
  -0.16000000E+00           0.00000000E+00
  -0.15000000E+00           0.00000000E+00
  -0.14000000E+00           0.00000000E+00
  -0.13000000E+00           0.00000000E+00
  -0.12000000E+00           0.00000000E+00
  -0.11000000E+00           0.00000000E+00
  -0.10000000E+00           0.00000000E+00
  -0.90000000E-01           0.00000000E+00
  -0.80000000E-01           0.00000000E+00
  -0.70000000E-01           0.00000000E+00
  -0.60000000E-01           0.00000000E+00
  -0.50000000E-01           0.00000000E+00
  -0.40000000E-01           0.00000000E+00
  -0.30000000E-01           0.00000000E+00
  -0.20000000E-01           0.00000000E+00
  -0.10000000E-01           0.00000000E+00
   0.00000000E+00           0.13733507E-02
   0.10000000E-01           0.33596875E-01
   0.20000000E-01           0.11764575E+00
   0.30000000E-01           0.24131137E+00
   0.40000000E-01           0.39485955E+00
   0.50000000E-01           0.56656380E+00
   0.60000000E-01           0.75095825E+00
   0.70000000E-01           0.94513802E+00
   0.80000000E-01           0.11351841E+01
   0.90000000E-01           0.13267830E+01
   0.10000000E+00           0.15120380E+01
   0.11000000E+00           0.16889118E+01
   0.12000000E+00           0.18562496E+01
   0.13000000E+00           0.20093467E+01
   0.14000000E+00           0.21508280E+01
   0.15000000E+00           0.22791473E+01
   0.16000000E+00           0.23931880E+01
   0.17000000E+00           0.24908452E+01
   0.18000000E+00           0.25761486E+01
   0.19000000E+00           0.26451883E+01
   0.20000000E+00           0.27032545E+01
   0.21000000E+00           0.27407872E+01
   0.22000000E+00           0.27719381E+01
   0.23000000E+00           0.27815641E+01
   0.24000000E+00           0.27867864E+01
   0.25000000E+00           0.27724326E+01
   0.26000000E+00           0.27520004E+01
   0.27000000E+00           0.27213552E+01
   0.28000000E+00           0.26819445E+01
   0.29000000E+00           0.26301693E+01
   0.30000000E+00           0.25723101E+01
   0.31000000E+00           0.25094122E+01
   0.32000000E+00           0.24363011E+01
   0.33000000E+00           0.23626437E+01
   0.34000000E+00           0.22806314E+01
   0.35000000E+00           0.21964859E+01
   0.36000000E+00           0.21086759E+01
   0.37000000E+00           0.20211597E+01
   0.38000000E+00           0.19261218E+01
   0.39000000E+00           0.18393544E+01
   0.40000000E+00           0.17450794E+01
   0.41000000E+00           0.16533997E+01
   0.42000000E+00           0.15610582E+01
   0.43000000E+00           0.14727841E+01
   0.44000000E+00           0.13836213E+01
   0.45000000E+00           0.12967886E+01
   0.46000000E+00           0.12145107E+01
   0.47000000E+00           0.11342321E+01
   0.48000000E+00           0.10557125E+01
   0.49000000E+00           0.97916606E+00
   0.50000000E+00           0.90849922E+00
   0.51000000E+00           0.83929661E+00
   0.52000000E+00           0.77327700E+00
   0.53000000E+00           0.71269618E+00
   0.54000000E+00           0.65359470E+00
   0.55000000E+00           0.59920503E+00
   0.56000000E+00           0.54824123E+00
   0.57000000E+00           0.50010816E+00
   0.58000000E+00           0.45328550E+00
   0.59000000E+00           0.41257856E+00
   0.60000000E+00           0.37319323E+00
   0.61000000E+00           0.33669028E+00
   0.62000000E+00           0.30440165E+00
   0.63000000E+00           0.27326415E+00
   0.64000000E+00           0.24548368E+00
   0.65000000E+00           0.22070078E+00
   0.66000000E+00           0.19679444E+00
   0.67000000E+00           0.17595842E+00
   0.68000000E+00           0.15661181E+00
   0.69000000E+00           0.13906806E+00
   0.70000000E+00           0.12328455E+00
   0.71000000E+00           0.10905642E+00
   0.72000000E+00           0.96103125E-01
   0.73000000E+00           0.84544184E-01
   0.74000000E+00           0.74205122E-01
   0.75000000E+00           0.65421962E-01
   0.76000000E+00           0.57208854E-01
   0.77000000E+00           0.49990104E-01
   0.78000000E+00           0.43612066E-01
   0.79000000E+00           0.37944878E-01
   0.80000000E+00           0.32886545E-01
   0.81000000E+00           0.28398090E-01
   0.82000000E+00           0.24483767E-01
   0.83000000E+00           0.21321615E-01
   0.84000000E+00           0.18314149E-01
   0.85000000E+00           0.15669184E-01
   0.86000000E+00           0.13397743E-01
   0.87000000E+00           0.11455729E-01
   0.88000000E+00           0.98653646E-02
   0.89000000E+00           0.84209201E-02
   0.90000000E+00           0.71794271E-02
   0.91000000E+00           0.60853299E-02
   0.92000000E+00           0.50816840E-02
   0.93000000E+00           0.43022569E-02
   0.94000000E+00           0.35871528E-02
   0.95000000E+00           0.30315972E-02
   0.96000000E+00           0.26243924E-02
   0.97000000E+00           0.21798611E-02
   0.98000000E+00           0.18094618E-02
   0.99000000E+00           0.14871528E-02
   0.10000000E+01           0.12578993E-02
   0.10100000E+01           0.10487847E-02
   0.10200000E+01           0.87560764E-03
   0.10300000E+01           0.71857639E-03
   0.10400000E+01           0.57934028E-03
   0.10500000E+01           0.49843750E-03
   0.10600000E+01           0.38984375E-03
   0.10700000E+01           0.34010417E-03
   0.10800000E+01           0.26631944E-03
   0.10900000E+01           0.21067708E-03
   0.11000000E+01           0.16293403E-03
   0.11100000E+01           0.14453125E-03
   0.11200000E+01           0.12213542E-03
   0.11300000E+01           0.94097222E-04
   0.11400000E+01           0.80468750E-04
   0.11500000E+01           0.65625000E-04
   0.11600000E+01           0.49739583E-04
   0.11700000E+01           0.40711806E-04
   0.11800000E+01           0.31857639E-04
   0.11900000E+01           0.31684028E-04
   0.12000000E+01           0.23524306E-04
   0.12100000E+01           0.15798611E-04
   0.12200000E+01           0.13194444E-04
   0.12300000E+01           0.11197917E-04
   0.12400000E+01           0.74652778E-05
   0.12500000E+01           0.59027778E-05
   0.12600000E+01           0.32986111E-05
   0.12700000E+01           0.58159722E-05
   0.12800000E+01           0.40798611E-05
   0.12900000E+01           0.16493056E-05
   0.13000000E+01           0.23437500E-05
   0.13100000E+01           0.23437500E-05
   0.13200000E+01           0.95486111E-06
   0.13300000E+01           0.15625000E-05
   0.13400000E+01           0.60763889E-06
   0.13500000E+01           0.69444444E-06
   0.13600000E+01           0.52083333E-06
   0.13700000E+01           0.52083333E-06
   0.13800000E+01           0.17361111E-06
   0.13900000E+01           0.17361111E-06
   0.14000000E+01           0.00000000E+00
   0.14100000E+01           0.17361111E-06
   0.14200000E+01           0.00000000E+00
   0.14300000E+01           0.00000000E+00
   0.14400000E+01           0.17361111E-06
   0.14500000E+01           0.00000000E+00
   0.14600000E+01           0.00000000E+00
   0.14700000E+01           0.00000000E+00
   0.14800000E+01           0.00000000E+00
   0.14900000E+01           0.00000000E+00
   0.15000000E+01           0.17361111E-06
   0.15100000E+01           0.00000000E+00
   0.15200000E+01           0.00000000E+00
   0.15300000E+01           0.00000000E+00
   0.15400000E+01           0.26041667E-06
   0.15500000E+01           0.00000000E+00
   0.15600000E+01           0.00000000E+00
   0.15700000E+01           0.00000000E+00
   0.15800000E+01           0.00000000E+00
   0.15900000E+01           0.00000000E+00
   0.16000000E+01           0.00000000E+00
   0.16100000E+01           0.00000000E+00
   0.16200000E+01           0.00000000E+00
   0.16300000E+01           0.00000000E+00
   0.16400000E+01           0.00000000E+00
   0.16500000E+01           0.00000000E+00
   0.16600000E+01           0.00000000E+00
   0.16700000E+01           0.00000000E+00
   0.16800000E+01           0.00000000E+00
   0.16900000E+01           0.00000000E+00
   0.17000000E+01           0.00000000E+00
   0.17100000E+01           0.00000000E+00
   0.17200000E+01           0.00000000E+00
   0.17300000E+01           0.86805556E-07
   0.17400000E+01           0.00000000E+00
   0.17500000E+01           0.00000000E+00
   0.17600000E+01           0.00000000E+00
   0.17700000E+01           0.00000000E+00
   0.17800000E+01           0.00000000E+00
   0.17900000E+01           0.00000000E+00
   0.18000000E+01           0.00000000E+00
   0.18100000E+01           0.00000000E+00
   0.18200000E+01           0.00000000E+00
   0.18300000E+01           0.00000000E+00
   0.18400000E+01           0.00000000E+00
   0.18500000E+01           0.00000000E+00
   0.18600000E+01           0.00000000E+00
   0.18700000E+01           0.00000000E+00
   0.18800000E+01           0.00000000E+00
   0.18900000E+01           0.00000000E+00
   0.19000000E+01           0.00000000E+00
   0.19100000E+01           0.00000000E+00
   0.19200000E+01           0.00000000E+00
   0.19300000E+01           0.00000000E+00
   0.19400000E+01           0.00000000E+00
   0.19500000E+01           0.00000000E+00
   0.19600000E+01           0.00000000E+00
   0.19700000E+01           0.00000000E+00
   0.19800000E+01           0.00000000E+00
   0.19900000E+01           0.00000000E+00
   0.20000000E+01           0.00000000E+00
   0.20100000E+01           0.00000000E+00
   0.20200000E+01           0.00000000E+00
   0.20300000E+01           0.00000000E+00
   0.20400000E+01           0.00000000E+00
   0.20500000E+01           0.00000000E+00
   0.20600000E+01           0.00000000E+00
   0.20700000E+01           0.00000000E+00
   0.20800000E+01           0.00000000E+00
   0.20900000E+01           0.00000000E+00
   0.21000000E+01           0.00000000E+00
   0.21100000E+01           0.00000000E+00
   0.21200000E+01           0.00000000E+00
   0.21300000E+01           0.00000000E+00
   0.21400000E+01           0.00000000E+00
   0.21500000E+01           0.00000000E+00
   0.21600000E+01           0.00000000E+00
   0.21700000E+01           0.00000000E+00
   0.21800000E+01           0.00000000E+00
   0.21900000E+01           0.00000000E+00
   0.22000000E+01           0.00000000E+00
   0.22100000E+01           0.00000000E+00
   0.22200000E+01           0.00000000E+00
   0.22300000E+01           0.00000000E+00
   0.22400000E+01           0.00000000E+00
   0.22500000E+01           0.00000000E+00
   0.22600000E+01           0.00000000E+00
   0.22700000E+01           0.00000000E+00
   0.22800000E+01           0.00000000E+00
   0.22900000E+01           0.00000000E+00
   0.23000000E+01           0.00000000E+00
   0.23100000E+01           0.00000000E+00
   0.23200000E+01           0.00000000E+00
   0.23300000E+01           0.00000000E+00
   0.23400000E+01           0.00000000E+00
   0.23500000E+01           0.00000000E+00
   0.23600000E+01           0.00000000E+00
   0.23700000E+01           0.00000000E+00
   0.23800000E+01           0.00000000E+00
   0.23900000E+01           0.00000000E+00
   0.24000000E+01           0.00000000E+00
   0.24100000E+01           0.00000000E+00
   0.24200000E+01           0.00000000E+00
   0.24300000E+01           0.00000000E+00
   0.24400000E+01           0.00000000E+00
   0.24500000E+01           0.00000000E+00
   0.24600000E+01           0.00000000E+00
   0.24700000E+01           0.00000000E+00
   0.24800000E+01           0.00000000E+00
   0.24900000E+01           0.00000000E+00
   0.25000000E+01           0.00000000E+00
   0.25100000E+01           0.00000000E+00
   0.25200000E+01           0.00000000E+00
   0.25300000E+01           0.00000000E+00
   0.25400000E+01           0.00000000E+00
   0.25500000E+01           0.00000000E+00
   0.25600000E+01           0.00000000E+00
   0.25700000E+01           0.00000000E+00
   0.25800000E+01           0.00000000E+00
   0.25900000E+01           0.00000000E+00
   0.26000000E+01           0.00000000E+00
   0.26100000E+01           0.00000000E+00
   0.26200000E+01           0.00000000E+00
   0.26300000E+01           0.00000000E+00
   0.26400000E+01           0.00000000E+00
   0.26500000E+01           0.00000000E+00
   0.26600000E+01           0.00000000E+00
   0.26700000E+01           0.00000000E+00
   0.26800000E+01           0.00000000E+00
   0.26900000E+01           0.00000000E+00
   0.27000000E+01           0.00000000E+00
   0.27100000E+01           0.00000000E+00
   0.27200000E+01           0.00000000E+00
   0.27300000E+01           0.00000000E+00
   0.27400000E+01           0.00000000E+00
   0.27500000E+01           0.00000000E+00
   0.27600000E+01           0.00000000E+00
   0.27700000E+01           0.00000000E+00
   0.27800000E+01           0.00000000E+00
   0.27900000E+01           0.00000000E+00
   0.28000000E+01           0.00000000E+00
   0.28100000E+01           0.00000000E+00
   0.28200000E+01           0.00000000E+00
   0.28300000E+01           0.00000000E+00
   0.28400000E+01           0.00000000E+00
   0.28500000E+01           0.00000000E+00
   0.28600000E+01           0.00000000E+00
   0.28700000E+01           0.00000000E+00
   0.28800000E+01           0.00000000E+00
   0.28900000E+01           0.00000000E+00
   0.29000000E+01           0.00000000E+00
   0.29100000E+01           0.00000000E+00
   0.29200000E+01           0.00000000E+00
   0.29300000E+01           0.00000000E+00
   0.29400000E+01           0.00000000E+00
   0.29500000E+01           0.00000000E+00
   0.29600000E+01           0.00000000E+00
   0.29700000E+01           0.00000000E+00
   0.29800000E+01           0.00000000E+00
   0.29900000E+01           0.00000000E+00
   0.30000000E+01           0.00000000E+00
   0.30100000E+01           0.00000000E+00
   0.30200000E+01           0.00000000E+00
   0.30300000E+01           0.00000000E+00
   0.30400000E+01           0.00000000E+00
   0.30500000E+01           0.00000000E+00
   0.30600000E+01           0.00000000E+00
   0.30700000E+01           0.00000000E+00
   0.30800000E+01           0.00000000E+00
   0.30900000E+01           0.00000000E+00
   0.31000000E+01           0.00000000E+00
   0.31100000E+01           0.00000000E+00
   0.31200000E+01           0.00000000E+00
   0.31300000E+01           0.00000000E+00
   0.31400000E+01           0.00000000E+00
   0.31500000E+01           0.00000000E+00
   0.31600000E+01           0.00000000E+00
   0.31700000E+01           0.00000000E+00
   0.31800000E+01           0.00000000E+00
   0.31900000E+01           0.00000000E+00
   0.32000000E+01           0.00000000E+00
   0.32100000E+01           0.00000000E+00
   0.32200000E+01           0.00000000E+00
   0.32300000E+01           0.00000000E+00
   0.32400000E+01           0.00000000E+00
   0.32500000E+01           0.00000000E+00
   0.32600000E+01           0.00000000E+00
   0.32700000E+01           0.00000000E+00
   0.32800000E+01           0.00000000E+00
   0.32900000E+01           0.00000000E+00
   0.33000000E+01           0.00000000E+00
   0.33100000E+01           0.00000000E+00
   0.33200000E+01           0.00000000E+00
   0.33300000E+01           0.00000000E+00
   0.33400000E+01           0.00000000E+00
   0.33500000E+01           0.00000000E+00
   0.33600000E+01           0.00000000E+00
   0.33700000E+01           0.00000000E+00
   0.33800000E+01           0.00000000E+00
   0.33900000E+01           0.00000000E+00
   0.34000000E+01           0.00000000E+00
   0.34100000E+01           0.00000000E+00
   0.34200000E+01           0.00000000E+00
   0.34300000E+01           0.00000000E+00
   0.34400000E+01           0.00000000E+00
   0.34500000E+01           0.00000000E+00
   0.34600000E+01           0.00000000E+00
   0.34700000E+01           0.00000000E+00
   0.34800000E+01           0.00000000E+00
   0.34900000E+01           0.00000000E+00
   0.35000000E+01           0.00000000E+00
   0.35100000E+01           0.00000000E+00
   0.35200000E+01           0.00000000E+00
   0.35300000E+01           0.00000000E+00
   0.35400000E+01           0.00000000E+00
   0.35500000E+01           0.00000000E+00
   0.35600000E+01           0.00000000E+00
   0.35700000E+01           0.00000000E+00
   0.35800000E+01           0.00000000E+00
   0.35900000E+01           0.00000000E+00
   0.36000000E+01           0.00000000E+00
   0.36100000E+01           0.00000000E+00
   0.36200000E+01           0.00000000E+00
   0.36300000E+01           0.00000000E+00
   0.36400000E+01           0.00000000E+00
   0.36500000E+01           0.00000000E+00
   0.36600000E+01           0.00000000E+00
   0.36700000E+01           0.00000000E+00
   0.36800000E+01           0.00000000E+00
   0.36900000E+01           0.00000000E+00
   0.37000000E+01           0.00000000E+00
   0.37100000E+01           0.00000000E+00
   0.37200000E+01           0.00000000E+00
   0.37300000E+01           0.00000000E+00
   0.37400000E+01           0.00000000E+00
   0.37500000E+01           0.00000000E+00
   0.37600000E+01           0.00000000E+00
   0.37700000E+01           0.00000000E+00
   0.37800000E+01           0.00000000E+00
   0.37900000E+01           0.00000000E+00
   0.38000000E+01           0.00000000E+00
   0.38100000E+01           0.00000000E+00
   0.38200000E+01           0.00000000E+00
   0.38300000E+01           0.00000000E+00
   0.38400000E+01           0.00000000E+00
   0.38500000E+01           0.00000000E+00
   0.38600000E+01           0.00000000E+00
   0.38700000E+01           0.00000000E+00
   0.38800000E+01           0.00000000E+00
   0.38900000E+01           0.00000000E+00
   0.39000000E+01           0.00000000E+00
   0.39100000E+01           0.00000000E+00
   0.39200000E+01           0.00000000E+00
   0.39300000E+01           0.00000000E+00
   0.39400000E+01           0.00000000E+00
   0.39500000E+01           0.00000000E+00
   0.39600000E+01           0.00000000E+00
   0.39700000E+01           0.00000000E+00
   0.39800000E+01           0.00000000E+00
   0.39900000E+01           0.00000000E+00
   0.40000000E+01           0.00000000E+00
 #T=     6.0952
  -0.40000000E+01           0.00000000E+00
  -0.39900000E+01           0.00000000E+00
  -0.39800000E+01           0.00000000E+00
  -0.39700000E+01           0.00000000E+00
  -0.39600000E+01           0.00000000E+00
  -0.39500000E+01           0.00000000E+00
  -0.39400000E+01           0.00000000E+00
  -0.39300000E+01           0.00000000E+00
  -0.39200000E+01           0.00000000E+00
  -0.39100000E+01           0.00000000E+00
  -0.39000000E+01           0.00000000E+00
  -0.38900000E+01           0.00000000E+00
  -0.38800000E+01           0.00000000E+00
  -0.38700000E+01           0.00000000E+00
  -0.38600000E+01           0.00000000E+00
  -0.38500000E+01           0.00000000E+00
  -0.38400000E+01           0.00000000E+00
  -0.38300000E+01           0.00000000E+00
  -0.38200000E+01           0.00000000E+00
  -0.38100000E+01           0.00000000E+00
  -0.38000000E+01           0.00000000E+00
  -0.37900000E+01           0.00000000E+00
  -0.37800000E+01           0.00000000E+00
  -0.37700000E+01           0.00000000E+00
  -0.37600000E+01           0.00000000E+00
  -0.37500000E+01           0.00000000E+00
  -0.37400000E+01           0.00000000E+00
  -0.37300000E+01           0.00000000E+00
  -0.37200000E+01           0.00000000E+00
  -0.37100000E+01           0.00000000E+00
  -0.37000000E+01           0.00000000E+00
  -0.36900000E+01           0.00000000E+00
  -0.36800000E+01           0.00000000E+00
  -0.36700000E+01           0.00000000E+00
  -0.36600000E+01           0.00000000E+00
  -0.36500000E+01           0.00000000E+00
  -0.36400000E+01           0.00000000E+00
  -0.36300000E+01           0.00000000E+00
  -0.36200000E+01           0.00000000E+00
  -0.36100000E+01           0.00000000E+00
  -0.36000000E+01           0.00000000E+00
  -0.35900000E+01           0.00000000E+00
  -0.35800000E+01           0.00000000E+00
  -0.35700000E+01           0.00000000E+00
  -0.35600000E+01           0.00000000E+00
  -0.35500000E+01           0.00000000E+00
  -0.35400000E+01           0.00000000E+00
  -0.35300000E+01           0.00000000E+00
  -0.35200000E+01           0.00000000E+00
  -0.35100000E+01           0.00000000E+00
  -0.35000000E+01           0.00000000E+00
  -0.34900000E+01           0.00000000E+00
  -0.34800000E+01           0.00000000E+00
  -0.34700000E+01           0.00000000E+00
  -0.34600000E+01           0.00000000E+00
  -0.34500000E+01           0.00000000E+00
  -0.34400000E+01           0.00000000E+00
  -0.34300000E+01           0.00000000E+00
  -0.34200000E+01           0.00000000E+00
  -0.34100000E+01           0.00000000E+00
  -0.34000000E+01           0.00000000E+00
  -0.33900000E+01           0.00000000E+00
  -0.33800000E+01           0.00000000E+00
  -0.33700000E+01           0.00000000E+00
  -0.33600000E+01           0.00000000E+00
  -0.33500000E+01           0.00000000E+00
  -0.33400000E+01           0.00000000E+00
  -0.33300000E+01           0.00000000E+00
  -0.33200000E+01           0.00000000E+00
  -0.33100000E+01           0.00000000E+00
  -0.33000000E+01           0.00000000E+00
  -0.32900000E+01           0.00000000E+00
  -0.32800000E+01           0.00000000E+00
  -0.32700000E+01           0.00000000E+00
  -0.32600000E+01           0.00000000E+00
  -0.32500000E+01           0.00000000E+00
  -0.32400000E+01           0.00000000E+00
  -0.32300000E+01           0.00000000E+00
  -0.32200000E+01           0.00000000E+00
  -0.32100000E+01           0.00000000E+00
  -0.32000000E+01           0.00000000E+00
  -0.31900000E+01           0.00000000E+00
  -0.31800000E+01           0.00000000E+00
  -0.31700000E+01           0.00000000E+00
  -0.31600000E+01           0.00000000E+00
  -0.31500000E+01           0.00000000E+00
  -0.31400000E+01           0.00000000E+00
  -0.31300000E+01           0.00000000E+00
  -0.31200000E+01           0.00000000E+00
  -0.31100000E+01           0.00000000E+00
  -0.31000000E+01           0.00000000E+00
  -0.30900000E+01           0.00000000E+00
  -0.30800000E+01           0.00000000E+00
  -0.30700000E+01           0.00000000E+00
  -0.30600000E+01           0.00000000E+00
  -0.30500000E+01           0.00000000E+00
  -0.30400000E+01           0.00000000E+00
  -0.30300000E+01           0.00000000E+00
  -0.30200000E+01           0.00000000E+00
  -0.30100000E+01           0.00000000E+00
  -0.30000000E+01           0.00000000E+00
  -0.29900000E+01           0.00000000E+00
  -0.29800000E+01           0.00000000E+00
  -0.29700000E+01           0.00000000E+00
  -0.29600000E+01           0.00000000E+00
  -0.29500000E+01           0.00000000E+00
  -0.29400000E+01           0.00000000E+00
  -0.29300000E+01           0.00000000E+00
  -0.29200000E+01           0.00000000E+00
  -0.29100000E+01           0.00000000E+00
  -0.29000000E+01           0.00000000E+00
  -0.28900000E+01           0.00000000E+00
  -0.28800000E+01           0.00000000E+00
  -0.28700000E+01           0.00000000E+00
  -0.28600000E+01           0.00000000E+00
  -0.28500000E+01           0.00000000E+00
  -0.28400000E+01           0.00000000E+00
  -0.28300000E+01           0.00000000E+00
  -0.28200000E+01           0.00000000E+00
  -0.28100000E+01           0.00000000E+00
  -0.28000000E+01           0.00000000E+00
  -0.27900000E+01           0.00000000E+00
  -0.27800000E+01           0.00000000E+00
  -0.27700000E+01           0.00000000E+00
  -0.27600000E+01           0.00000000E+00
  -0.27500000E+01           0.00000000E+00
  -0.27400000E+01           0.00000000E+00
  -0.27300000E+01           0.00000000E+00
  -0.27200000E+01           0.00000000E+00
  -0.27100000E+01           0.00000000E+00
  -0.27000000E+01           0.00000000E+00
  -0.26900000E+01           0.00000000E+00
  -0.26800000E+01           0.00000000E+00
  -0.26700000E+01           0.00000000E+00
  -0.26600000E+01           0.00000000E+00
  -0.26500000E+01           0.00000000E+00
  -0.26400000E+01           0.00000000E+00
  -0.26300000E+01           0.00000000E+00
  -0.26200000E+01           0.00000000E+00
  -0.26100000E+01           0.00000000E+00
  -0.26000000E+01           0.00000000E+00
  -0.25900000E+01           0.00000000E+00
  -0.25800000E+01           0.00000000E+00
  -0.25700000E+01           0.00000000E+00
  -0.25600000E+01           0.00000000E+00
  -0.25500000E+01           0.00000000E+00
  -0.25400000E+01           0.00000000E+00
  -0.25300000E+01           0.00000000E+00
  -0.25200000E+01           0.00000000E+00
  -0.25100000E+01           0.00000000E+00
  -0.25000000E+01           0.00000000E+00
  -0.24900000E+01           0.00000000E+00
  -0.24800000E+01           0.00000000E+00
  -0.24700000E+01           0.00000000E+00
  -0.24600000E+01           0.00000000E+00
  -0.24500000E+01           0.00000000E+00
  -0.24400000E+01           0.00000000E+00
  -0.24300000E+01           0.00000000E+00
  -0.24200000E+01           0.00000000E+00
  -0.24100000E+01           0.00000000E+00
  -0.24000000E+01           0.00000000E+00
  -0.23900000E+01           0.00000000E+00
  -0.23800000E+01           0.00000000E+00
  -0.23700000E+01           0.00000000E+00
  -0.23600000E+01           0.00000000E+00
  -0.23500000E+01           0.00000000E+00
  -0.23400000E+01           0.00000000E+00
  -0.23300000E+01           0.00000000E+00
  -0.23200000E+01           0.00000000E+00
  -0.23100000E+01           0.00000000E+00
  -0.23000000E+01           0.00000000E+00
  -0.22900000E+01           0.00000000E+00
  -0.22800000E+01           0.00000000E+00
  -0.22700000E+01           0.00000000E+00
  -0.22600000E+01           0.00000000E+00
  -0.22500000E+01           0.00000000E+00
  -0.22400000E+01           0.00000000E+00
  -0.22300000E+01           0.00000000E+00
  -0.22200000E+01           0.00000000E+00
  -0.22100000E+01           0.00000000E+00
  -0.22000000E+01           0.00000000E+00
  -0.21900000E+01           0.00000000E+00
  -0.21800000E+01           0.00000000E+00
  -0.21700000E+01           0.00000000E+00
  -0.21600000E+01           0.00000000E+00
  -0.21500000E+01           0.00000000E+00
  -0.21400000E+01           0.00000000E+00
  -0.21300000E+01           0.00000000E+00
  -0.21200000E+01           0.00000000E+00
  -0.21100000E+01           0.00000000E+00
  -0.21000000E+01           0.00000000E+00
  -0.20900000E+01           0.00000000E+00
  -0.20800000E+01           0.00000000E+00
  -0.20700000E+01           0.00000000E+00
  -0.20600000E+01           0.00000000E+00
  -0.20500000E+01           0.00000000E+00
  -0.20400000E+01           0.00000000E+00
  -0.20300000E+01           0.00000000E+00
  -0.20200000E+01           0.00000000E+00
  -0.20100000E+01           0.00000000E+00
  -0.20000000E+01           0.00000000E+00
  -0.19900000E+01           0.00000000E+00
  -0.19800000E+01           0.00000000E+00
  -0.19700000E+01           0.00000000E+00
  -0.19600000E+01           0.00000000E+00
  -0.19500000E+01           0.00000000E+00
  -0.19400000E+01           0.00000000E+00
  -0.19300000E+01           0.00000000E+00
  -0.19200000E+01           0.00000000E+00
  -0.19100000E+01           0.00000000E+00
  -0.19000000E+01           0.00000000E+00
  -0.18900000E+01           0.00000000E+00
  -0.18800000E+01           0.00000000E+00
  -0.18700000E+01           0.00000000E+00
  -0.18600000E+01           0.00000000E+00
  -0.18500000E+01           0.00000000E+00
  -0.18400000E+01           0.00000000E+00
  -0.18300000E+01           0.00000000E+00
  -0.18200000E+01           0.00000000E+00
  -0.18100000E+01           0.00000000E+00
  -0.18000000E+01           0.00000000E+00
  -0.17900000E+01           0.00000000E+00
  -0.17800000E+01           0.00000000E+00
  -0.17700000E+01           0.00000000E+00
  -0.17600000E+01           0.00000000E+00
  -0.17500000E+01           0.00000000E+00
  -0.17400000E+01           0.00000000E+00
  -0.17300000E+01           0.00000000E+00
  -0.17200000E+01           0.00000000E+00
  -0.17100000E+01           0.00000000E+00
  -0.17000000E+01           0.00000000E+00
  -0.16900000E+01           0.00000000E+00
  -0.16800000E+01           0.00000000E+00
  -0.16700000E+01           0.00000000E+00
  -0.16600000E+01           0.00000000E+00
  -0.16500000E+01           0.00000000E+00
  -0.16400000E+01           0.00000000E+00
  -0.16300000E+01           0.00000000E+00
  -0.16200000E+01           0.00000000E+00
  -0.16100000E+01           0.00000000E+00
  -0.16000000E+01           0.00000000E+00
  -0.15900000E+01           0.00000000E+00
  -0.15800000E+01           0.00000000E+00
  -0.15700000E+01           0.00000000E+00
  -0.15600000E+01           0.00000000E+00
  -0.15500000E+01           0.00000000E+00
  -0.15400000E+01           0.00000000E+00
  -0.15300000E+01           0.00000000E+00
  -0.15200000E+01           0.00000000E+00
  -0.15100000E+01           0.00000000E+00
  -0.15000000E+01           0.00000000E+00
  -0.14900000E+01           0.00000000E+00
[...]
  -0.64000000E+00           0.00000000E+00
  -0.63000000E+00           0.00000000E+00
  -0.62000000E+00           0.00000000E+00
  -0.61000000E+00           0.00000000E+00
  -0.60000000E+00           0.00000000E+00
  -0.59000000E+00           0.00000000E+00
  -0.58000000E+00           0.00000000E+00
  -0.57000000E+00           0.00000000E+00
  -0.56000000E+00           0.00000000E+00
  -0.55000000E+00           0.00000000E+00
  -0.54000000E+00           0.00000000E+00
  -0.53000000E+00           0.00000000E+00
  -0.52000000E+00           0.00000000E+00
  -0.51000000E+00           0.00000000E+00
  -0.50000000E+00           0.00000000E+00
  -0.49000000E+00           0.00000000E+00
  -0.48000000E+00           0.00000000E+00
  -0.47000000E+00           0.00000000E+00
  -0.46000000E+00           0.00000000E+00
  -0.45000000E+00           0.00000000E+00
  -0.44000000E+00           0.00000000E+00
  -0.43000000E+00           0.00000000E+00
  -0.42000000E+00           0.00000000E+00
  -0.41000000E+00           0.00000000E+00
  -0.40000000E+00           0.00000000E+00
  -0.39000000E+00           0.00000000E+00
  -0.38000000E+00           0.00000000E+00
  -0.37000000E+00           0.00000000E+00
  -0.36000000E+00           0.00000000E+00
  -0.35000000E+00           0.00000000E+00
  -0.34000000E+00           0.00000000E+00
  -0.33000000E+00           0.00000000E+00
  -0.32000000E+00           0.00000000E+00
  -0.31000000E+00           0.00000000E+00
  -0.30000000E+00           0.00000000E+00
  -0.29000000E+00           0.00000000E+00
  -0.28000000E+00           0.00000000E+00
  -0.27000000E+00           0.00000000E+00
  -0.26000000E+00           0.00000000E+00
  -0.25000000E+00           0.00000000E+00
  -0.24000000E+00           0.00000000E+00
  -0.23000000E+00           0.00000000E+00
  -0.22000000E+00           0.00000000E+00
  -0.21000000E+00           0.00000000E+00
  -0.20000000E+00           0.00000000E+00
  -0.19000000E+00           0.00000000E+00
  -0.18000000E+00           0.00000000E+00
  -0.17000000E+00           0.00000000E+00
  -0.16000000E+00           0.00000000E+00
  -0.15000000E+00           0.00000000E+00
  -0.14000000E+00           0.00000000E+00
  -0.13000000E+00           0.00000000E+00
  -0.12000000E+00           0.00000000E+00
  -0.11000000E+00           0.00000000E+00
  -0.10000000E+00           0.00000000E+00
  -0.90000000E-01           0.00000000E+00
  -0.80000000E-01           0.00000000E+00
  -0.70000000E-01           0.00000000E+00
  -0.60000000E-01           0.00000000E+00
  -0.50000000E-01           0.00000000E+00
  -0.40000000E-01           0.00000000E+00
  -0.30000000E-01           0.00000000E+00
  -0.20000000E-01           0.00000000E+00
  -0.10000000E-01           0.00000000E+00
   0.00000000E+00           0.11024306E-04
   0.10000000E-01           0.27638889E-03
   0.20000000E-01           0.99826389E-03
   0.30000000E-01           0.22066840E-02
   0.40000000E-01           0.38511285E-02
   0.50000000E-01           0.59921007E-02
   0.60000000E-01           0.84532118E-02
   0.70000000E-01           0.11397656E-01
   0.80000000E-01           0.14746354E-01
   0.90000000E-01           0.18552517E-01
   0.10000000E+00           0.22685069E-01
   0.11000000E+00           0.27266753E-01
   0.12000000E+00           0.32163021E-01
   0.13000000E+00           0.37363194E-01
   0.14000000E+00           0.43064236E-01
   0.15000000E+00           0.49007986E-01
   0.16000000E+00           0.55260156E-01
   0.17000000E+00           0.61815451E-01
   0.18000000E+00           0.68596701E-01
   0.19000000E+00           0.75914497E-01
   0.20000000E+00           0.83293576E-01
   0.21000000E+00           0.90950955E-01
   0.22000000E+00           0.98872309E-01
   0.23000000E+00           0.10704696E+00
   0.24000000E+00           0.11541372E+00
   0.25000000E+00           0.12403793E+00
   0.26000000E+00           0.13286484E+00
   0.27000000E+00           0.14192604E+00
   0.28000000E+00           0.15084870E+00
   0.29000000E+00           0.16029905E+00
   0.30000000E+00           0.16975460E+00
   0.31000000E+00           0.17946832E+00
   0.32000000E+00           0.18935998E+00
   0.33000000E+00           0.19942752E+00
   0.34000000E+00           0.20910226E+00
   0.35000000E+00           0.21926155E+00
   0.36000000E+00           0.22934297E+00
   0.37000000E+00           0.23957786E+00
   0.38000000E+00           0.24973255E+00
   0.39000000E+00           0.26023385E+00
   0.40000000E+00           0.27114470E+00
   0.41000000E+00           0.28178802E+00
   0.42000000E+00           0.29230130E+00
   0.43000000E+00           0.30276016E+00
   0.44000000E+00           0.31295191E+00
   0.45000000E+00           0.32362630E+00
   0.46000000E+00           0.33411302E+00
   0.47000000E+00           0.34501658E+00
   0.48000000E+00           0.35532882E+00
   0.49000000E+00           0.36584392E+00
   0.50000000E+00           0.37604297E+00
   0.51000000E+00           0.38676493E+00
   0.52000000E+00           0.39684905E+00
   0.53000000E+00           0.40712153E+00
   0.54000000E+00           0.41713880E+00
   0.55000000E+00           0.42732622E+00
   0.56000000E+00           0.43734931E+00
   0.57000000E+00           0.44745269E+00
   0.58000000E+00           0.45706215E+00
   0.59000000E+00           0.46666120E+00
   0.60000000E+00           0.47597283E+00
   0.61000000E+00           0.48572960E+00
   0.62000000E+00           0.49521528E+00
   0.63000000E+00           0.50421675E+00
   0.64000000E+00           0.51320061E+00
   0.65000000E+00           0.52179141E+00
   0.66000000E+00           0.53087005E+00
   0.67000000E+00           0.53910017E+00
   0.68000000E+00           0.54768238E+00
   0.69000000E+00           0.55621536E+00
   0.70000000E+00           0.56364575E+00
   0.71000000E+00           0.57139965E+00
   0.72000000E+00           0.57966059E+00
   0.73000000E+00           0.58666606E+00
   0.74000000E+00           0.59417691E+00
   0.75000000E+00           0.60095339E+00
   0.76000000E+00           0.60802109E+00
   0.77000000E+00           0.61523993E+00
   0.78000000E+00           0.62174045E+00
   0.79000000E+00           0.62759601E+00
   0.80000000E+00           0.63417656E+00
   0.81000000E+00           0.63983186E+00
   0.82000000E+00           0.64564097E+00
   0.83000000E+00           0.65118264E+00
   0.84000000E+00           0.65633012E+00
   0.85000000E+00           0.66120061E+00
   0.86000000E+00           0.66535582E+00
   0.87000000E+00           0.67009939E+00
   0.88000000E+00           0.67494297E+00
   0.89000000E+00           0.67926094E+00
   0.90000000E+00           0.68333047E+00
   0.91000000E+00           0.68637300E+00
   0.92000000E+00           0.69030087E+00
   0.93000000E+00           0.69357734E+00
   0.94000000E+00           0.69644323E+00
   0.95000000E+00           0.69947083E+00
   0.96000000E+00           0.70166155E+00
   0.97000000E+00           0.70417639E+00
   0.98000000E+00           0.70645052E+00
   0.99000000E+00           0.70796276E+00
   0.10000000E+01           0.71006267E+00
   0.10100000E+01           0.71155347E+00
   0.10200000E+01           0.71283299E+00
   0.10300000E+01           0.71371927E+00
   0.10400000E+01           0.71419696E+00
   0.10500000E+01           0.71579184E+00
   0.10600000E+01           0.71603802E+00
   0.10700000E+01           0.71665781E+00
   0.10800000E+01           0.71616406E+00
   0.10900000E+01           0.71612361E+00
   0.11000000E+01           0.71590443E+00
   0.11100000E+01           0.71501250E+00
   0.11200000E+01           0.71469714E+00
   0.11300000E+01           0.71342769E+00
   0.11400000E+01           0.71227144E+00
   0.11500000E+01           0.71076076E+00
   0.11600000E+01           0.70964861E+00
   0.11700000E+01           0.70750955E+00
   0.11800000E+01           0.70578403E+00
   0.11900000E+01           0.70293750E+00
   0.12000000E+01           0.70199097E+00
   0.12100000E+01           0.69897335E+00
   0.12200000E+01           0.69665356E+00
   0.12300000E+01           0.69399028E+00
   0.12400000E+01           0.69086858E+00
   0.12500000E+01           0.68782439E+00
   0.12600000E+01           0.68440391E+00
   0.12700000E+01           0.68115156E+00
   0.12800000E+01           0.67804210E+00
   0.12900000E+01           0.67413898E+00
   0.13000000E+01           0.67056840E+00
   0.13100000E+01           0.66680035E+00
   0.13200000E+01           0.66254965E+00
   0.13300000E+01           0.65772743E+00
   0.13400000E+01           0.65378689E+00
   0.13500000E+01           0.64979939E+00
   0.13600000E+01           0.64506606E+00
   0.13700000E+01           0.64011146E+00
   0.13800000E+01           0.63594644E+00
   0.13900000E+01           0.63079149E+00
   0.14000000E+01           0.62560998E+00
   0.14100000E+01           0.62058464E+00
   0.14200000E+01           0.61545964E+00
   0.14300000E+01           0.61043932E+00
   0.14400000E+01           0.60466189E+00
   0.14500000E+01           0.59945738E+00
   0.14600000E+01           0.59369080E+00
   0.14700000E+01           0.58812630E+00
   0.14800000E+01           0.58278160E+00
   0.14900000E+01           0.57676988E+00
   0.15000000E+01           0.57075833E+00
   0.15100000E+01           0.56483186E+00
   0.15200000E+01           0.55907274E+00
   0.15300000E+01           0.55303333E+00
   0.15400000E+01           0.54727943E+00
   0.15500000E+01           0.54097231E+00
   0.15600000E+01           0.53460061E+00
   0.15700000E+01           0.52883472E+00
   0.15800000E+01           0.52253472E+00
   0.15900000E+01           0.51615868E+00
   0.16000000E+01           0.50987266E+00
   0.16100000E+01           0.50350720E+00
   0.16200000E+01           0.49697205E+00
   0.16300000E+01           0.49071207E+00
   0.16400000E+01           0.48413516E+00
   0.16500000E+01           0.47755807E+00
   0.16600000E+01           0.47150764E+00
   0.16700000E+01           0.46474080E+00
   0.16800000E+01           0.45828498E+00
   0.16900000E+01           0.45170556E+00
   0.17000000E+01           0.44551719E+00
   0.17100000E+01           0.43901111E+00
   0.17200000E+01           0.43198602E+00
   0.17300000E+01           0.42593611E+00
   0.17400000E+01           0.41885755E+00
   0.17500000E+01           0.41266354E+00
   0.17600000E+01           0.40629679E+00
   0.17700000E+01           0.39985399E+00
   0.17800000E+01           0.39333698E+00
   0.17900000E+01           0.38671849E+00
   0.18000000E+01           0.38068420E+00
   0.18100000E+01           0.37430399E+00
   0.18200000E+01           0.36780920E+00
   0.18300000E+01           0.36124809E+00
   0.18400000E+01           0.35500477E+00
   0.18500000E+01           0.34891354E+00
   0.18600000E+01           0.34255955E+00
   0.18700000E+01           0.33623351E+00
   0.18800000E+01           0.32984427E+00
   0.18900000E+01           0.32378663E+00
   0.19000000E+01           0.31744115E+00
   0.19100000E+01           0.31128602E+00
   0.19200000E+01           0.30538837E+00
   0.19300000E+01           0.29939071E+00
   0.19400000E+01           0.29337925E+00
   0.19500000E+01           0.28731224E+00
   0.19600000E+01           0.28157639E+00
   0.19700000E+01           0.27579149E+00
   0.19800000E+01           0.26982969E+00
   0.19900000E+01           0.26416962E+00
   0.20000000E+01           0.25838411E+00
   0.20100000E+01           0.25258325E+00
   0.20200000E+01           0.24714635E+00
   0.20300000E+01           0.24162109E+00
   0.20400000E+01           0.23617274E+00
   0.20500000E+01           0.23105165E+00
   0.20600000E+01           0.22580477E+00
   0.20700000E+01           0.22005425E+00
   0.20800000E+01           0.21541562E+00
   0.20900000E+01           0.21061675E+00
   0.21000000E+01           0.20586762E+00
   0.21100000E+01           0.20074028E+00
   0.21200000E+01           0.19614271E+00
   0.21300000E+01           0.19103229E+00
   0.21400000E+01           0.18684470E+00
   0.21500000E+01           0.18242535E+00
   0.21600000E+01           0.17779748E+00
   0.21700000E+01           0.17348689E+00
   0.21800000E+01           0.16905885E+00
   0.21900000E+01           0.16502804E+00
   0.22000000E+01           0.16089549E+00
   0.22100000E+01           0.15693837E+00
   0.22200000E+01           0.15303776E+00
   0.22300000E+01           0.14919618E+00
   0.22400000E+01           0.14496076E+00
   0.22500000E+01           0.14141823E+00
   0.22600000E+01           0.13791302E+00
   0.22700000E+01           0.13443698E+00
   0.22800000E+01           0.13076710E+00
   0.22900000E+01           0.12712075E+00
   0.23000000E+01           0.12389036E+00
   0.23100000E+01           0.12065191E+00
   0.23200000E+01           0.11733898E+00
   0.23300000E+01           0.11426181E+00
   0.23400000E+01           0.11108030E+00
   0.23500000E+01           0.10812500E+00
   0.23600000E+01           0.10532049E+00
   0.23700000E+01           0.10216701E+00
   0.23800000E+01           0.99320313E-01
   0.23900000E+01           0.96372309E-01
   0.24000000E+01           0.93730122E-01
   0.24100000E+01           0.91178212E-01
   0.24200000E+01           0.88478559E-01
   0.24300000E+01           0.86055035E-01
   0.24400000E+01           0.83445573E-01
   0.24500000E+01           0.81059288E-01
   0.24600000E+01           0.78636024E-01
   0.24700000E+01           0.76322396E-01
   0.24800000E+01           0.74109983E-01
   0.24900000E+01           0.71924045E-01
   0.25000000E+01           0.69721267E-01
   0.25100000E+01           0.67621528E-01
   0.25200000E+01           0.65636892E-01
   0.25300000E+01           0.63580122E-01
   0.25400000E+01           0.61650955E-01
   0.25500000E+01           0.59767014E-01
   0.25600000E+01           0.57940451E-01
   0.25700000E+01           0.56106510E-01
   0.25800000E+01           0.54250955E-01
   0.25900000E+01           0.52597656E-01
   0.26000000E+01           0.51017361E-01
   0.26100000E+01           0.49175781E-01
   0.26200000E+01           0.47646875E-01
   0.26300000E+01           0.46169792E-01
   0.26400000E+01           0.44635590E-01
   0.26500000E+01           0.43174913E-01
   0.26600000E+01           0.41854080E-01
   0.26700000E+01           0.40388976E-01
   0.26800000E+01           0.39043924E-01
   0.26900000E+01           0.37586458E-01
   0.27000000E+01           0.36402951E-01
   0.27100000E+01           0.35216580E-01
   0.27200000E+01           0.33927865E-01
   0.27300000E+01           0.32828646E-01
   0.27400000E+01           0.31653472E-01
   0.27500000E+01           0.30538281E-01
   0.27600000E+01           0.29504340E-01
   0.27700000E+01           0.28337500E-01
   0.27800000E+01           0.27390799E-01
   0.27900000E+01           0.26437934E-01
   0.28000000E+01           0.25456250E-01
   0.28100000E+01           0.24523351E-01
   0.28200000E+01           0.23706944E-01
   0.28300000E+01           0.22886806E-01
   0.28400000E+01           0.21952083E-01
   0.28500000E+01           0.21173611E-01
   0.28600000E+01           0.20382726E-01
   0.28700000E+01           0.19600347E-01
   0.28800000E+01           0.18932986E-01
   0.28900000E+01           0.18134983E-01
   0.29000000E+01           0.17493316E-01
   0.29100000E+01           0.16730469E-01
   0.29200000E+01           0.16147396E-01
   0.29300000E+01           0.15452344E-01
   0.29400000E+01           0.14884722E-01
   0.29500000E+01           0.14249566E-01
   0.29600000E+01           0.13707118E-01
   0.29700000E+01           0.13126302E-01
   0.29800000E+01           0.12648437E-01
   0.29900000E+01           0.12135069E-01
   0.30000000E+01           0.11647309E-01
   0.30100000E+01           0.11150521E-01
   0.30200000E+01           0.10663976E-01
   0.30300000E+01           0.10228906E-01
   0.30400000E+01           0.98171007E-02
   0.30500000E+01           0.93770833E-02
   0.30600000E+01           0.89995660E-02
   0.30700000E+01           0.85947049E-02
   0.30800000E+01           0.81775174E-02
   0.30900000E+01           0.79017361E-02
   0.31000000E+01           0.74845486E-02
   0.31100000E+01           0.71799479E-02
   0.31200000E+01           0.68648437E-02
   0.31300000E+01           0.65513889E-02
   0.31400000E+01           0.62677951E-02
   0.31500000E+01           0.59984375E-02
   0.31600000E+01           0.57183160E-02
   0.31700000E+01           0.54404514E-02
   0.31800000E+01           0.51899306E-02
   0.31900000E+01           0.49297743E-02
   0.32000000E+01           0.46899306E-02
   0.32100000E+01           0.44590278E-02
   0.32200000E+01           0.42708333E-02
   0.32300000E+01           0.40486111E-02
   0.32400000E+01           0.38664062E-02
   0.32500000E+01           0.36659722E-02
   0.32600000E+01           0.34796875E-02
   0.32700000E+01           0.33254340E-02
   0.32800000E+01           0.31493056E-02
   0.32900000E+01           0.30157118E-02
   0.33000000E+01           0.28236111E-02
   0.33100000E+01           0.26777778E-02
   0.33200000E+01           0.25473958E-02
   0.33300000E+01           0.24152778E-02
   0.33400000E+01           0.22707465E-02
   0.33500000E+01           0.21693576E-02
   0.33600000E+01           0.20555556E-02
   0.33700000E+01           0.19439236E-02
   0.33800000E+01           0.18015625E-02
   0.33900000E+01           0.17406250E-02
   0.34000000E+01           0.16241319E-02
   0.34100000E+01           0.15210069E-02
   0.34200000E+01           0.14668403E-02
   0.34300000E+01           0.13530382E-02
   0.34400000E+01           0.12815104E-02
   0.34500000E+01           0.12122396E-02
   0.34600000E+01           0.11233507E-02
   0.34700000E+01           0.10607639E-02
   0.34800000E+01           0.10137153E-02
   0.34900000E+01           0.94401042E-03
   0.35000000E+01           0.88029514E-03
   0.35100000E+01           0.82387153E-03
   0.35200000E+01           0.75494792E-03
   0.35300000E+01           0.72725694E-03
   0.35400000E+01           0.66145833E-03
   0.35500000E+01           0.62968750E-03
   0.35600000E+01           0.58489583E-03
   0.35700000E+01           0.53446181E-03
   0.35800000E+01           0.50173611E-03
   0.35900000E+01           0.46953125E-03
   0.36000000E+01           0.42256944E-03
   0.36100000E+01           0.39340278E-03
   0.36200000E+01           0.36631944E-03
   0.36300000E+01           0.33298611E-03
   0.36400000E+01           0.31979167E-03
   0.36500000E+01           0.28263889E-03
   0.36600000E+01           0.26345486E-03
   0.36700000E+01           0.23845486E-03
   0.36800000E+01           0.22031250E-03
   0.36900000E+01           0.19331597E-03
   0.37000000E+01           0.18298611E-03
   0.37100000E+01           0.17274306E-03
   0.37200000E+01           0.15329861E-03
   0.37300000E+01           0.14314236E-03
   0.37400000E+01           0.12760417E-03
   0.37500000E+01           0.10920139E-03
   0.37600000E+01           0.10121528E-03
   0.37700000E+01           0.89843750E-04
   0.37800000E+01           0.84722222E-04
   0.37900000E+01           0.72743056E-04
   0.38000000E+01           0.61024306E-04
   0.38100000E+01           0.54427083E-04
   0.38200000E+01           0.48611111E-04
   0.38300000E+01           0.41493056E-04
   0.38400000E+01           0.37586806E-04
   0.38500000E+01           0.29079861E-04
   0.38600000E+01           0.25607639E-04
   0.38700000E+01           0.20572917E-04
   0.38800000E+01           0.20052083E-04
   0.38900000E+01           0.12673611E-04
   0.39000000E+01           0.10763889E-04
   0.39100000E+01           0.82465278E-05
   0.39200000E+01           0.81597222E-05
   0.39300000E+01           0.46006944E-05
   0.39400000E+01           0.44270833E-05
   0.39500000E+01           0.26041667E-05
   0.39600000E+01           0.15625000E-05
   0.39700000E+01           0.13020833E-05
   0.39800000E+01           0.60763889E-06
   0.39900000E+01           0.00000000E+00
   0.40000000E+01           0.00000000E+00
