 #written on  7Aug2021 at 23:09:39 
 #---------------------------------------------------- MONTECARLO ----------------------------------------------------#
 #  Temp    Shell   Atom1   Type1   Atom2   Type2   <\sum_{ij} Si.Sj/N>   <\sum_{ij}|Si.Sj|/N>   <|\sum_{ij}Si.Sj|/N> #
 #--------------------------------------------------------------------------------------------------------------------#
   4.0000     1      Mn       1      Mn       1        -0.976478180           0.976478180             0.976478180
   4.0000     2      Mn       1      Mn       1         0.821311562           0.821402113             0.821311562
   4.0000     3      Mn       1      Mn       1         0.964457348           0.964457349             0.964457348
   4.0000     4      Mn       1      Mn       1        -0.823406055           0.823493367             0.823406055
   4.0000     5      Mn       1      Mn       1        -0.961657760           0.961657761             0.961657760
   4.0000     6      Mn       1      Mn       1         0.824831817           0.824915526             0.824831817
   4.0000     7      Mn       1      Mn       1        -0.825774163           0.825856282             0.825774163
   5.0476     1      Mn       1      Mn       1        -0.970277158           0.970277159             0.970277158
   5.0476     2      Mn       1      Mn       1         0.807685449           0.808268521             0.807685449
   5.0476     3      Mn       1      Mn       1         0.955129932           0.955129933             0.955129932
   5.0476     4      Mn       1      Mn       1        -0.810311269           0.810879890             0.810311269
   5.0476     5      Mn       1      Mn       1        -0.951607812           0.951607813             0.951607812
   5.0476     6      Mn       1      Mn       1         0.812090116           0.812643458             0.812090116
   5.0476     7      Mn       1      Mn       1        -0.813271226           0.813817184             0.813271226
   6.0952     1      Mn       1      Mn       1        -0.964053308           0.964053308             0.964053308
   6.0952     2      Mn       1      Mn       1         0.147390208           0.801843786             0.800201237
   6.0952     3      Mn       1      Mn       1         0.945772183           0.945772183             0.945772183
   6.0952     4      Mn       1      Mn       1        -0.150570725           0.802426256             0.800788121
   6.0952     5      Mn       1      Mn       1        -0.941520893           0.941520893             0.941520893
   6.0952     6      Mn       1      Mn       1         0.152731774           0.802809568             0.801176081
   6.0952     7      Mn       1      Mn       1        -0.154163693           0.803073853             0.801441542
   7.1429     1      Mn       1      Mn       1        -0.957833708           0.957833708             0.957833708
   7.1429     2      Mn       1      Mn       1         0.736441413           0.745958594             0.737095084
   7.1429     3      Mn       1      Mn       1         0.936454668           0.936454669             0.936454668
   7.1429     4      Mn       1      Mn       1        -0.740021282           0.749399734             0.740645851
   7.1429     5      Mn       1      Mn       1        -0.931496903           0.931496907             0.931496903
   7.1429     6      Mn       1      Mn       1         0.742430947           0.751693716             0.743036872
   7.1429     7      Mn       1      Mn       1        -0.744038283           0.753235357             0.744631784
   8.1905     1      Mn       1      Mn       1        -0.951564628           0.951564628             0.951564628
   8.1905     2      Mn       1      Mn       1         0.580258605           0.763183651             0.759832916
   8.1905     3      Mn       1      Mn       1         0.927063375           0.927063384             0.927063375
   8.1905     4      Mn       1      Mn       1        -0.584426033           0.766294441             0.763005136
   8.1905     5      Mn       1      Mn       1        -0.921380946           0.921380984             0.921380946
   8.1905     6      Mn       1      Mn       1         0.587229101           0.768362786             0.765132957
   8.1905     7      Mn       1      Mn       1        -0.589102020           0.769758781             0.766558317
   9.2381     1      Mn       1      Mn       1        -0.945264997           0.945264997             0.945264997
   9.2381     2      Mn       1      Mn       1        -0.427648852           0.762794258             0.757875834
   9.2381     3      Mn       1      Mn       1         0.917635430           0.917635500             0.917635430
   9.2381     4      Mn       1      Mn       1         0.422900067           0.760197309             0.755245556
   9.2381     5      Mn       1      Mn       1        -0.911226663           0.911226891             0.911226663
   9.2381     6      Mn       1      Mn       1        -0.419688540           0.758444117             0.753449761
   9.2381     7      Mn       1      Mn       1         0.417558293           0.757284266             0.752269791
  10.2857     1      Mn       1      Mn       1        -0.938963784           0.938963788             0.938963784
  10.2857     2      Mn       1      Mn       1        -0.309767895           0.733176285             0.724334723
  10.2857     3      Mn       1      Mn       1         0.908223655           0.908224011             0.908223655
  10.2857     4      Mn       1      Mn       1         0.304578159           0.731066387             0.722195728
  10.2857     5      Mn       1      Mn       1        -0.901103577           0.901104581             0.901103577
  10.2857     6      Mn       1      Mn       1        -0.301078253           0.729642148             0.720729533
  10.2857     7      Mn       1      Mn       1         0.298749261           0.728706451             0.719770930
  11.3333     1      Mn       1      Mn       1        -0.932646280           0.932646295             0.932646280
  11.3333     2      Mn       1      Mn       1        -0.196751159           0.706802046             0.692146050
  11.3333     3      Mn       1      Mn       1         0.898807059           0.898808383             0.898807059
  11.3333     4      Mn       1      Mn       1         0.191131045           0.705315832             0.690606675
  11.3333     5      Mn       1      Mn       1        -0.890981392           0.890984824             0.890981392
  11.3333     6      Mn       1      Mn       1        -0.187361575           0.704322519             0.689549285
  11.3333     7      Mn       1      Mn       1         0.184843394           0.703672882             0.688861711
  12.3810     1      Mn       1      Mn       1        -0.926294151           0.926294220             0.926294151
  12.3810     2      Mn       1      Mn       1        -0.202608301           0.703288784             0.689093958
  12.3810     3      Mn       1      Mn       1         0.889353824           0.889357821             0.889353824
  12.3810     4      Mn       1      Mn       1         0.196457765           0.701619057             0.687405855
  12.3810     5      Mn       1      Mn       1        -0.880815239           0.880824899             0.880815239
  12.3810     6      Mn       1      Mn       1        -0.192344821           0.700496696             0.686242063
  12.3810     7      Mn       1      Mn       1         0.189592805           0.699766092             0.685486507
  13.4286     1      Mn       1      Mn       1        -0.919910786           0.919911027             0.919910786
  13.4286     2      Mn       1      Mn       1        -0.207755856           0.692322750             0.675312448
  13.4286     3      Mn       1      Mn       1         0.879862662           0.879872880             0.879862662
  13.4286     4      Mn       1      Mn       1         0.201110791           0.690458441             0.673407124
  13.4286     5      Mn       1      Mn       1        -0.870613582           0.870636712             0.870613582
  13.4286     6      Mn       1      Mn       1        -0.196680400           0.689218394             0.672100615
  13.4286     7      Mn       1      Mn       1         0.193709189           0.688408514             0.671251432
  14.4762     1      Mn       1      Mn       1        -0.913522319           0.913523018             0.913522319
  14.4762     2      Mn       1      Mn       1        -0.198907709           0.671663016             0.647574262
  14.4762     3      Mn       1      Mn       1         0.870385217           0.870408205             0.870385217
  14.4762     4      Mn       1      Mn       1         0.191835987           0.669730661             0.645573566
  14.4762     5      Mn       1      Mn       1        -0.860436817           0.860485806             0.860436817
  14.4762     6      Mn       1      Mn       1        -0.187147984           0.668459025             0.644197695
  14.4762     7      Mn       1      Mn       1         0.183992401           0.667621746             0.643302283
  15.5238     1      Mn       1      Mn       1        -0.907097503           0.907099276             0.907097503
  15.5238     2      Mn       1      Mn       1        -0.157989543           0.651489254             0.618295678
  15.5238     3      Mn       1      Mn       1         0.860858718           0.860905492             0.860858718
  15.5238     4      Mn       1      Mn       1         0.150499952           0.649844883             0.616573176
  15.5238     5      Mn       1      Mn       1        -0.850208722           0.850303319             0.850208722
  15.5238     6      Mn       1      Mn       1        -0.145559160           0.648775828             0.615391975
  15.5238     7      Mn       1      Mn       1         0.142220995           0.648076277             0.614628257
  16.5714     1      Mn       1      Mn       1        -0.900650366           0.900654385             0.900650366
  16.5714     2      Mn       1      Mn       1        -0.190105800           0.636777093             0.593902195
  16.5714     3      Mn       1      Mn       1         0.851324309           0.851411250             0.851324309
  16.5714     4      Mn       1      Mn       1         0.182165379           0.634650204             0.591624174
  16.5714     5      Mn       1      Mn       1        -0.839980910           0.840149709             0.839980910
  16.5714     6      Mn       1      Mn       1        -0.176948587           0.633291648             0.590076206
  16.5714     7      Mn       1      Mn       1         0.173416362           0.632387393             0.589066657
  17.6190     1      Mn       1      Mn       1        -0.894167510           0.894175857             0.894167510
  17.6190     2      Mn       1      Mn       1        -0.167217070           0.619299582             0.567797012
  17.6190     3      Mn       1      Mn       1         0.841737456           0.841889012             0.841737456
  17.6190     4      Mn       1      Mn       1         0.158867567           0.617319100             0.565693439
  17.6190     5      Mn       1      Mn       1        -0.829691167           0.829973871             0.829691167
  17.6190     6      Mn       1      Mn       1        -0.153409526           0.616075235             0.564268682
  17.6190     7      Mn       1      Mn       1         0.149696747           0.615247818             0.563341254
  18.6667     1      Mn       1      Mn       1        -0.887642677           0.887658521             0.887642677
  18.6667     2      Mn       1      Mn       1        -0.137813867           0.604925486             0.541881882
  18.6667     3      Mn       1      Mn       1         0.832100056           0.832348659             0.832100056
  18.6667     4      Mn       1      Mn       1         0.129035705           0.603205845             0.540031832
  18.6667     5      Mn       1      Mn       1        -0.819350871           0.819799547             0.819350871
  18.6667     6      Mn       1      Mn       1        -0.123322910           0.602134293             0.538772404
  18.6667     7      Mn       1      Mn       1         0.119422056           0.601424287             0.537958862
  19.7143     1      Mn       1      Mn       1        -0.881112111           0.881140573             0.881112111
  19.7143     2      Mn       1      Mn       1        -0.143101757           0.593667719             0.520231425
  19.7143     3      Mn       1      Mn       1         0.822477703           0.822866379             0.822477703
  19.7143     4      Mn       1      Mn       1         0.133888030           0.591779829             0.518160140
  19.7143     5      Mn       1      Mn       1        -0.809031236           0.809710984             0.809031236
  19.7143     6      Mn       1      Mn       1        -0.127932903           0.590625315             0.516764331
  19.7143     7      Mn       1      Mn       1         0.123848241           0.589853510             0.515857295
  20.7619     1      Mn       1      Mn       1        -0.874522816           0.874570966             0.874522816
  20.7619     2      Mn       1      Mn       1        -0.149973853           0.584305693             0.500509864
  20.7619     3      Mn       1      Mn       1         0.812771439           0.813354218             0.812771439
  20.7619     4      Mn       1      Mn       1         0.140306009           0.582226909             0.498175846
  20.7619     5      Mn       1      Mn       1        -0.798629539           0.799620284             0.798629539
  20.7619     6      Mn       1      Mn       1        -0.134088423           0.580976846             0.496613230
  20.7619     7      Mn       1      Mn       1         0.129813397           0.580134323             0.495596146
  21.8095     1      Mn       1      Mn       1        -0.867909284           0.867987358             0.867909284
  21.8095     2      Mn       1      Mn       1        -0.147963114           0.574341145             0.479132715
  21.8095     3      Mn       1      Mn       1         0.803039742           0.803883867             0.803039742
  21.8095     4      Mn       1      Mn       1         0.137857313           0.572209783             0.476644735
  21.8095     5      Mn       1      Mn       1        -0.788196637           0.789596725             0.788196637
  21.8095     6      Mn       1      Mn       1        -0.131395132           0.570951824             0.474995001
  21.8095     7      Mn       1      Mn       1         0.126930559           0.570089819             0.473913054
  22.8571     1      Mn       1      Mn       1        -0.861258874           0.861379847             0.861258874
  22.8571     2      Mn       1      Mn       1        -0.145432083           0.567087155             0.461471674
  22.8571     3      Mn       1      Mn       1         0.793274250           0.794456949             0.793274250
  22.8571     4      Mn       1      Mn       1         0.134858023           0.564884808             0.458925038
  22.8571     5      Mn       1      Mn       1        -0.777736302           0.779652285             0.777736302
  22.8571     6      Mn       1      Mn       1        -0.128124964           0.563597512             0.457239997
  22.8571     7      Mn       1      Mn       1         0.123460721           0.562722660             0.456145357
  23.9048     1      Mn       1      Mn       1        -0.854565668           0.854747032             0.854565668
  23.9048     2      Mn       1      Mn       1        -0.149224818           0.560566144             0.444889881
  23.9048     3      Mn       1      Mn       1         0.783452648           0.785067677             0.783452648
  23.9048     4      Mn       1      Mn       1         0.138179400           0.558212994             0.442144675
  23.9048     5      Mn       1      Mn       1        -0.767216883           0.769781125             0.767216883
  23.9048     6      Mn       1      Mn       1        -0.131175222           0.556865299             0.440338171
  23.9048     7      Mn       1      Mn       1         0.126310139           0.555936929             0.439161339
  24.9524     1      Mn       1      Mn       1        -0.847837029           0.848100221             0.847837029
  24.9524     2      Mn       1      Mn       1        -0.138102991           0.553423619             0.425466679
  24.9524     3      Mn       1      Mn       1         0.773590833           0.775743341             0.773590833
  24.9524     4      Mn       1      Mn       1         0.126602295           0.551171274             0.422779841
  24.9524     5      Mn       1      Mn       1        -0.756660966           0.760011656             0.756660966
  24.9524     6      Mn       1      Mn       1        -0.119347090           0.549907868             0.421026255
  24.9524     7      Mn       1      Mn       1         0.114287508           0.549031440             0.419886148
  26.0000     1      Mn       1      Mn       1        -0.841054232           0.841425686             0.841054232
  26.0000     2      Mn       1      Mn       1        -0.124000237           0.545513701             0.403531726
  26.0000     3      Mn       1      Mn       1         0.763660559           0.766471339             0.763660559
  26.0000     4      Mn       1      Mn       1         0.112042138           0.543424810             0.400995581
  26.0000     5      Mn       1      Mn       1        -0.746029171           0.750329623             0.746029171
  26.0000     6      Mn       1      Mn       1        -0.104549447           0.542278099             0.399345411
  26.0000     7      Mn       1      Mn       1         0.099297732           0.541481735             0.398278017
  27.0476     1      Mn       1      Mn       1        -0.834230528           0.834742687             0.834230528
  27.0476     2      Mn       1      Mn       1        -0.117496368           0.539585489             0.384892617
  27.0476     3      Mn       1      Mn       1         0.753681158           0.757285346             0.753681158
  27.0476     4      Mn       1      Mn       1         0.105077237           0.537547632             0.382303597
  27.0476     5      Mn       1      Mn       1        -0.735357111           0.740780664             0.735357111
  27.0476     6      Mn       1      Mn       1        -0.097337869           0.536450980             0.380642951
  27.0476     7      Mn       1      Mn       1         0.091896992           0.535693081             0.379568176
  28.0952     1      Mn       1      Mn       1        -0.827351266           0.828041408             0.827351266
  28.0952     2      Mn       1      Mn       1        -0.110387243           0.534653972             0.367864565
  28.0952     3      Mn       1      Mn       1         0.743611196           0.748158710             0.743611196
  28.0952     4      Mn       1      Mn       1         0.097472642           0.532679758             0.365249658
  28.0952     5      Mn       1      Mn       1        -0.724575600           0.731316831             0.724575600
  28.0952     6      Mn       1      Mn       1        -0.089460620           0.531640066             0.363580098
  28.0952     7      Mn       1      Mn       1         0.083810276           0.530918197             0.362504388
  29.1429     1      Mn       1      Mn       1        -0.820429887           0.821342993             0.820429887
  29.1429     2      Mn       1      Mn       1        -0.107133714           0.530896525             0.353122008
  29.1429     3      Mn       1      Mn       1         0.733501456           0.739153830             0.733501456
  29.1429     4      Mn       1      Mn       1         0.093714368           0.528924527             0.350460177
  29.1429     5      Mn       1      Mn       1        -0.713761982           0.722022581             0.713761982
  29.1429     6      Mn       1      Mn       1        -0.085426291           0.527912126             0.348779870
  29.1429     7      Mn       1      Mn       1         0.079562757           0.527206785             0.347702637
  30.1905     1      Mn       1      Mn       1        -0.813469465           0.814656484             0.813469465
  30.1905     2      Mn       1      Mn       1        -0.103615174           0.526545208             0.334742886
  30.1905     3      Mn       1      Mn       1         0.723344684           0.730277525             0.723344684
  30.1905     4      Mn       1      Mn       1         0.089715198           0.524589339             0.332013726
  30.1905     5      Mn       1      Mn       1        -0.702898863           0.712898333             0.702898863
  30.1905     6      Mn       1      Mn       1        -0.081177244           0.523607397             0.330320483
  30.1905     7      Mn       1      Mn       1         0.075108915           0.522918825             0.329239832
  31.2381     1      Mn       1      Mn       1        -0.806409082           0.807929956             0.806409082
  31.2381     2      Mn       1      Mn       1        -0.105288639           0.522851462             0.317821293
  31.2381     3      Mn       1      Mn       1         0.713042347           0.721455031             0.713042347
  31.2381     4      Mn       1      Mn       1         0.090875606           0.520814395             0.314774893
  31.2381     5      Mn       1      Mn       1        -0.691881825           0.703866366             0.691881825
  31.2381     6      Mn       1      Mn       1        -0.082064974           0.519811804             0.312899336
  31.2381     7      Mn       1      Mn       1         0.075782085           0.519103073             0.311693862
  32.2857     1      Mn       1      Mn       1        -0.799304789           0.801225038             0.799304789
  32.2857     2      Mn       1      Mn       1        -0.104322842           0.520064891             0.302759316
  32.2857     3      Mn       1      Mn       1         0.702674246           0.712772947             0.702674246
  32.2857     4      Mn       1      Mn       1         0.089385745           0.517999608             0.299544269
  32.2857     5      Mn       1      Mn       1        -0.680795826           0.695016569             0.680795826
  32.2857     6      Mn       1      Mn       1        -0.080297408           0.517008171             0.297593307
  32.2857     7      Mn       1      Mn       1         0.073798444           0.516293860             0.296341329
  33.3333     1      Mn       1      Mn       1        -0.792119600           0.794514496             0.792119600
  33.3333     2      Mn       1      Mn       1        -0.103833484           0.517366070             0.286891471
  33.3333     3      Mn       1      Mn       1         0.692193586           0.704201467             0.692193586
  33.3333     4      Mn       1      Mn       1         0.088353173           0.515248659             0.283448845
  33.3333     5      Mn       1      Mn       1        -0.669593511           0.686318437             0.669593511
  33.3333     6      Mn       1      Mn       1        -0.078970125           0.514254387             0.281385584
  33.3333     7      Mn       1      Mn       1         0.072244007           0.513540864             0.280066092
  34.3810     1      Mn       1      Mn       1        -0.784891113           0.787842813             0.784891113
  34.3810     2      Mn       1      Mn       1        -0.101736420           0.515063635             0.272173165
  34.3810     3      Mn       1      Mn       1         0.681648874           0.695801265             0.681648874
  34.3810     4      Mn       1      Mn       1         0.085713578           0.512958258             0.268465489
  34.3810     5      Mn       1      Mn       1        -0.658316861           0.677829739             0.658316861
  34.3810     6      Mn       1      Mn       1        -0.076044424           0.511997315             0.266275115
  34.3810     7      Mn       1      Mn       1         0.069087376           0.511301342             0.264872604
  35.4286     1      Mn       1      Mn       1        -0.777523657           0.781127003             0.777523657
  35.4286     2      Mn       1      Mn       1        -0.098215734           0.513072661             0.257468916
  35.4286     3      Mn       1      Mn       1         0.670888687           0.687458086             0.670888687
  35.4286     4      Mn       1      Mn       1         0.081625337           0.510997054             0.253704893
  35.4286     5      Mn       1      Mn       1        -0.646811582           0.669438549             0.646811582
  35.4286     6      Mn       1      Mn       1        -0.071643298           0.510076410             0.251515914
  35.4286     7      Mn       1      Mn       1         0.064446577           0.509405596             0.250123076
  36.4762     1      Mn       1      Mn       1        -0.770090940           0.774448927             0.770090940
  36.4762     2      Mn       1      Mn       1        -0.097078777           0.511562695             0.244036427
  36.4762     3      Mn       1      Mn       1         0.660021491           0.679283675             0.660021491
  36.4762     4      Mn       1      Mn       1         0.079899059           0.509469967             0.240025731
  36.4762     5      Mn       1      Mn       1        -0.635184131           0.661245906             0.635184131
  36.4762     6      Mn       1      Mn       1        -0.069593235           0.508558650             0.237720182
  36.4762     7      Mn       1      Mn       1         0.062150242           0.507895749             0.236271555
  37.5238     1      Mn       1      Mn       1        -0.762529111           0.767756972             0.762529111
  37.5238     2      Mn       1      Mn       1        -0.092587259           0.509685832             0.229110250
  37.5238     3      Mn       1      Mn       1         0.648953034           0.671214052             0.648953034
  37.5238     4      Mn       1      Mn       1         0.074824748           0.507662796             0.224957817
  37.5238     5      Mn       1      Mn       1        -0.623337280           0.653202183             0.623337280
  37.5238     6      Mn       1      Mn       1        -0.064211564           0.506816373             0.222618953
  37.5238     7      Mn       1      Mn       1         0.056519807           0.506197142             0.221161144
  38.5714     1      Mn       1      Mn       1        -0.754840217           0.761064643             0.754840217
  38.5714     2      Mn       1      Mn       1        -0.091540826           0.508706224             0.216526801
  38.5714     3      Mn       1      Mn       1         0.637668311           0.663262314             0.637668311
  38.5714     4      Mn       1      Mn       1         0.073131735           0.506675281             0.212041844
  38.5714     5      Mn       1      Mn       1        -0.611243293           0.645305365             0.611243293
  38.5714     6      Mn       1      Mn       1        -0.062151647           0.505841043             0.209558455
  38.5714     7      Mn       1      Mn       1         0.054188494           0.505234974             0.208023522
  39.6190     1      Mn       1      Mn       1        -0.747019482           0.754380292             0.747019482
  39.6190     2      Mn       1      Mn       1        -0.087602043           0.507469652             0.202135343
  39.6190     3      Mn       1      Mn       1         0.626151926           0.655436807             0.626151926
  39.6190     4      Mn       1      Mn       1         0.068548860           0.505501573             0.197499524
  39.6190     5      Mn       1      Mn       1        -0.598891269           0.637569206             0.598891269
  39.6190     6      Mn       1      Mn       1        -0.057197124           0.504723105             0.194986672
  39.6190     7      Mn       1      Mn       1         0.048958000           0.504158143             0.193463751
  40.6667     1      Mn       1      Mn       1        -0.739018784           0.747674712             0.739018784
  40.6667     2      Mn       1      Mn       1        -0.089359708           0.506728585             0.188864540
  40.6667     3      Mn       1      Mn       1         0.614324477           0.647709269             0.614324477
  40.6667     4      Mn       1      Mn       1         0.069621374           0.504665608             0.183596779
  40.6667     5      Mn       1      Mn       1        -0.586187148           0.629965600             0.586187148
  40.6667     6      Mn       1      Mn       1        -0.057869732           0.503870793             0.180787103
  40.6667     7      Mn       1      Mn       1         0.049336457           0.503293532             0.179097695
  41.7143     1      Mn       1      Mn       1        -0.730846297           0.740967323             0.730846297
  41.7143     2      Mn       1      Mn       1        -0.088172837           0.505898743             0.175862675
  41.7143     3      Mn       1      Mn       1         0.602206834           0.640107830             0.602206834
  41.7143     4      Mn       1      Mn       1         0.067730966           0.503836481             0.170104168
  41.7143     5      Mn       1      Mn       1        -0.573165607           0.622528890             0.573165607
  41.7143     6      Mn       1      Mn       1        -0.055562855           0.503064779             0.167091809
  41.7143     7      Mn       1      Mn       1         0.046724298           0.502507474             0.165307741
  42.7619     1      Mn       1      Mn       1        -0.722419077           0.734200019             0.722419077
  42.7619     2      Mn       1      Mn       1        -0.089325132           0.505483556             0.163297176
  42.7619     3      Mn       1      Mn       1         0.589614470           0.632546641             0.589614470
  42.7619     4      Mn       1      Mn       1         0.068124639           0.503353709             0.156652114
  42.7619     5      Mn       1      Mn       1        -0.559586788           0.615153339             0.559586788
  42.7619     6      Mn       1      Mn       1        -0.055486776           0.502580135             0.153204834
  42.7619     7      Mn       1      Mn       1         0.046316651           0.502015284             0.151172789
  43.8095     1      Mn       1      Mn       1        -0.713763744           0.727415751             0.713763744
  43.8095     2      Mn       1      Mn       1        -0.088975735           0.504989394             0.150962400
  43.8095     3      Mn       1      Mn       1         0.576618692           0.625099452             0.576618692
  43.8095     4      Mn       1      Mn       1         0.066989242           0.502834231             0.143327971
  43.8095     5      Mn       1      Mn       1        -0.545555045           0.607933496             0.545555045
  43.8095     6      Mn       1      Mn       1        -0.053854070           0.502072142             0.139408670
  43.8095     7      Mn       1      Mn       1         0.044334288           0.501521896             0.137117211
  44.8571     1      Mn       1      Mn       1        -0.704861818           0.720611655             0.704861818
  44.8571     2      Mn       1      Mn       1        -0.089563752           0.504650197             0.138858049
  44.8571     3      Mn       1      Mn       1         0.563162823           0.617752149             0.563162823
  44.8571     4      Mn       1      Mn       1         0.066718549           0.502433784             0.129783468
  44.8571     5      Mn       1      Mn       1        -0.530994856           0.600845829             0.530994856
  44.8571     6      Mn       1      Mn       1        -0.053020326           0.501677309             0.125169459
  44.8571     7      Mn       1      Mn       1         0.043118666           0.501133607             0.122512813
  45.9048     1      Mn       1      Mn       1        -0.695661379           0.713759606             0.695661379
  45.9048     2      Mn       1      Mn       1        -0.090221514           0.504409552             0.127851505
  45.9048     3      Mn       1      Mn       1         0.549186068           0.610502752             0.549186068
  45.9048     4      Mn       1      Mn       1         0.066484270           0.502142611             0.117098112
  45.9048     5      Mn       1      Mn       1        -0.515848542           0.593896491             0.515848542
  45.9048     6      Mn       1      Mn       1        -0.052175272           0.501380887             0.111638825
  45.9048     7      Mn       1      Mn       1         0.041861615           0.500835945             0.108532866
  46.9524     1      Mn       1      Mn       1        -0.686195438           0.706893209             0.686195438
  46.9524     2      Mn       1      Mn       1        -0.089991842           0.504202288             0.118169345
  46.9524     3      Mn       1      Mn       1         0.534760423           0.603387692             0.534760423
  46.9524     4      Mn       1      Mn       1         0.065308767           0.501891555             0.105544495
  46.9524     5      Mn       1      Mn       1        -0.500201590           0.587122715             0.500201590
  46.9524     6      Mn       1      Mn       1        -0.050359274           0.501145031             0.099150187
  46.9524     7      Mn       1      Mn       1         0.039618115           0.500623722             0.095560033
  48.0000     1      Mn       1      Mn       1        -0.676556813           0.700088766             0.676556813
  48.0000     2      Mn       1      Mn       1        -0.091820998           0.504145118             0.110838652
  48.0000     3      Mn       1      Mn       1         0.520054252           0.596510853             0.520054252
  48.0000     4      Mn       1      Mn       1         0.066163739           0.501733675             0.095652398
  48.0000     5      Mn       1      Mn       1        -0.484251791           0.580624703             0.484251791
  48.0000     6      Mn       1      Mn       1        -0.050545371           0.500968426             0.087899610
  48.0000     7      Mn       1      Mn       1         0.039356488           0.500440513             0.083550207
  49.0476     1      Mn       1      Mn       1        -0.666819807           0.693397435             0.666819807
  49.0476     2      Mn       1      Mn       1        -0.091902923           0.503999981             0.104618478
  49.0476     3      Mn       1      Mn       1         0.505247551           0.589935841             0.505247551
  49.0476     4      Mn       1      Mn       1         0.065255419           0.501554328             0.087113065
  49.0476     5      Mn       1      Mn       1        -0.468225547           0.574464745             0.468225547
  49.0476     6      Mn       1      Mn       1        -0.048962986           0.500798742             0.078180302
  49.0476     7      Mn       1      Mn       1         0.037329220           0.500286834             0.073233102
  50.0952     1      Mn       1      Mn       1        -0.657067783           0.686870685             0.657067783
  50.0952     2      Mn       1      Mn       1        -0.092660931           0.503942160             0.101092248
  50.0952     3      Mn       1      Mn       1         0.490530331           0.583726634             0.490530331
  50.0952     4      Mn       1      Mn       1         0.065020184           0.501438227             0.081208993
  50.0952     5      Mn       1      Mn       1        -0.452351612           0.568724682             0.452351612
  50.0952     6      Mn       1      Mn       1        -0.048077692           0.500693193             0.070986485
  50.0952     7      Mn       1      Mn       1         0.036010797           0.500188263             0.065348259
  51.1429     1      Mn       1      Mn       1        -0.647403422           0.680565820             0.647403422
  51.1429     2      Mn       1      Mn       1        -0.093049126           0.503897850             0.098523814
  51.1429     3      Mn       1      Mn       1         0.476072081           0.577924359             0.476072081
  51.1429     4      Mn       1      Mn       1         0.064423254           0.501333596             0.076367674
  51.1429     5      Mn       1      Mn       1        -0.436817302           0.563412196             0.436817302
  51.1429     6      Mn       1      Mn       1        -0.046862288           0.500603753             0.064897734
  51.1429     7      Mn       1      Mn       1         0.034368692           0.500117689             0.058594539
  52.1905     1      Mn       1      Mn       1        -0.637751215           0.674424118             0.637751215
  52.1905     2      Mn       1      Mn       1        -0.093151737           0.503835077             0.096733047
  52.1905     3      Mn       1      Mn       1         0.461757607           0.572465088             0.461757607
  52.1905     4      Mn       1      Mn       1         0.063556119           0.501236899             0.072570366
  52.1905     5      Mn       1      Mn       1        -0.421496224           0.558471681             0.421496224
  52.1905     6      Mn       1      Mn       1        -0.045396918           0.500511647             0.059983160
  52.1905     7      Mn       1      Mn       1         0.032483602           0.500045519             0.053089865
  53.2381     1      Mn       1      Mn       1        -0.628246931           0.668530355             0.628246931
  53.2381     2      Mn       1      Mn       1        -0.093100996           0.503759992             0.095535125
  53.2381     3      Mn       1      Mn       1         0.447802175           0.567394971             0.447802175
  53.2381     4      Mn       1      Mn       1         0.062552653           0.501135684             0.069655517
  53.2381     5      Mn       1      Mn       1        -0.406625303           0.553920885             0.406625303
  53.2381     6      Mn       1      Mn       1        -0.043851711           0.500435313             0.056156650
  53.2381     7      Mn       1      Mn       1         0.030551983           0.499987536             0.048818358
  54.2857     1      Mn       1      Mn       1        -0.618898075           0.662872394             0.618898075
  54.2857     2      Mn       1      Mn       1        -0.093277467           0.503725987             0.094861163
  54.2857     3      Mn       1      Mn       1         0.434256275           0.562709543             0.434256275
  54.2857     4      Mn       1      Mn       1         0.061809285           0.501068467             0.067248353
  54.2857     5      Mn       1      Mn       1        -0.392270437           0.549771025             0.392270437
  54.2857     6      Mn       1      Mn       1        -0.042592484           0.500376858             0.052774452
  54.2857     7      Mn       1      Mn       1         0.028904010           0.499946040             0.044947589
  55.3333     1      Mn       1      Mn       1        -0.609689161           0.657424523             0.609689161
  55.3333     2      Mn       1      Mn       1        -0.093201575           0.503679168             0.094282389
  55.3333     3      Mn       1      Mn       1         0.421047449           0.558338304             0.421047449
  55.3333     4      Mn       1      Mn       1         0.060842775           0.500987265             0.065203040
  55.3333     5      Mn       1      Mn       1        -0.378337712           0.545947016             0.378337712
  55.3333     6      Mn       1      Mn       1        -0.041173836           0.500323049             0.049937689
  55.3333     7      Mn       1      Mn       1         0.027142310           0.499910778             0.041720022
  56.3810     1      Mn       1      Mn       1        -0.600623480           0.652190229             0.600623480
  56.3810     2      Mn       1      Mn       1        -0.092851649           0.503615809             0.093586847
  56.3810     3      Mn       1      Mn       1         0.408212215           0.554290448             0.408212215
  56.3810     4      Mn       1      Mn       1         0.059612119           0.500912946             0.063147307
  56.3810     5      Mn       1      Mn       1        -0.364872198           0.542434558             0.364872198
  56.3810     6      Mn       1      Mn       1        -0.039518478           0.500270830             0.047219111
  56.3810     7      Mn       1      Mn       1         0.025156641           0.499877744             0.038723101
  57.4286     1      Mn       1      Mn       1        -0.591743938           0.647177939             0.591743938
  57.4286     2      Mn       1      Mn       1        -0.092351270           0.503538744             0.092895707
  57.4286     3      Mn       1      Mn       1         0.395776168           0.550546587             0.395776168
  57.4286     4      Mn       1      Mn       1         0.058284744           0.500841235             0.061296830
  57.4286     5      Mn       1      Mn       1        -0.351878822           0.539214064             0.351878822
  57.4286     6      Mn       1      Mn       1        -0.037824231           0.500228781             0.044796143
  57.4286     7      Mn       1      Mn       1         0.023153976           0.499860692             0.036080587
  58.4762     1      Mn       1      Mn       1        -0.583019620           0.642372208             0.583019620
  58.4762     2      Mn       1      Mn       1        -0.091690623           0.503448918             0.092091879
  58.4762     3      Mn       1      Mn       1         0.383676674           0.547063634             0.383676674
  58.4762     4      Mn       1      Mn       1         0.056818399           0.500758053             0.059429587
  58.4762     5      Mn       1      Mn       1        -0.339305883           0.536256217             0.339305883
  58.4762     6      Mn       1      Mn       1        -0.036024966           0.500175863             0.042471277
  58.4762     7      Mn       1      Mn       1         0.021058503           0.499832355             0.033632731
  59.5238     1      Mn       1      Mn       1        -0.574432081           0.637732261             0.574432081
  59.5238     2      Mn       1      Mn       1        -0.091202914           0.503395365             0.091486572
  59.5238     3      Mn       1      Mn       1         0.371915489           0.543819250             0.371915489
  59.5238     4      Mn       1      Mn       1         0.055544682           0.500697787             0.057772389
  59.5238     5      Mn       1      Mn       1        -0.327143769           0.533525551             0.327143769
  59.5238     6      Mn       1      Mn       1        -0.034456206           0.500141708             0.040374088
  59.5238     7      Mn       1      Mn       1         0.019213686           0.499820303             0.031427503
  60.5714     1      Mn       1      Mn       1        -0.566093338           0.633330492             0.566093338
  60.5714     2      Mn       1      Mn       1        -0.090745521           0.503339009             0.090958326
  60.5714     3      Mn       1      Mn       1         0.360645234           0.540849156             0.360645234
  60.5714     4      Mn       1      Mn       1         0.054366122           0.500647458             0.056319278
  60.5714     5      Mn       1      Mn       1        -0.315559946           0.531051601             0.315559946
  60.5714     6      Mn       1      Mn       1        -0.033035219           0.500112187             0.038550733
  60.5714     7      Mn       1      Mn       1         0.017544026           0.499818737             0.029510550
  61.6190     1      Mn       1      Mn       1        -0.557944840           0.629118563             0.557944840
  61.6190     2      Mn       1      Mn       1        -0.090173240           0.503276938             0.090337986
  61.6190     3      Mn       1      Mn       1         0.349776539           0.538101514             0.349776539
  61.6190     4      Mn       1      Mn       1         0.053094266           0.500606484             0.054850895
  61.6190     5      Mn       1      Mn       1        -0.304447696           0.528781491             0.304447696
  61.6190     6      Mn       1      Mn       1        -0.031558203           0.500098374             0.036794610
  61.6190     7      Mn       1      Mn       1         0.015834067           0.499820505             0.027751404
  62.6667     1      Mn       1      Mn       1        -0.549948385           0.625069175             0.549948385
  62.6667     2      Mn       1      Mn       1        -0.089578100           0.503211309             0.089700294
  62.6667     3      Mn       1      Mn       1         0.339218150           0.535536403             0.339218150
  62.6667     4      Mn       1      Mn       1         0.051827764           0.500539314             0.053371635
  62.6667     5      Mn       1      Mn       1        -0.293692721           0.526679804             0.293692721
  62.6667     6      Mn       1      Mn       1        -0.030111802           0.500061332             0.035043166
  62.6667     7      Mn       1      Mn       1         0.014171610           0.499806157             0.026037295
  63.7143     1      Mn       1      Mn       1        -0.542153766           0.621198078             0.542153766
  63.7143     2      Mn       1      Mn       1        -0.089006927           0.503170897             0.089104062
  63.7143     3      Mn       1      Mn       1         0.329062737           0.533170835             0.329062737
  63.7143     4      Mn       1      Mn       1         0.050612800           0.500504481             0.052024799
  63.7143     5      Mn       1      Mn       1        -0.283408129           0.524753151             0.283408129
  63.7143     6      Mn       1      Mn       1        -0.028769853           0.500052297             0.033505829
  63.7143     7      Mn       1      Mn       1         0.012634854           0.499811282             0.024575375
  64.7619     1      Mn       1      Mn       1        -0.534559828           0.617503987             0.534559828
  64.7619     2      Mn       1      Mn       1        -0.088536235           0.503112523             0.088612676
  64.7619     3      Mn       1      Mn       1         0.319302660           0.530989520             0.319302660
  64.7619     4      Mn       1      Mn       1         0.049538964           0.500473777             0.050835951
  64.7619     5      Mn       1      Mn       1        -0.273595939           0.523005689             0.273595939
  64.7619     6      Mn       1      Mn       1        -0.027580751           0.500040872             0.032141265
  64.7619     7      Mn       1      Mn       1         0.011258706           0.499823964             0.023268996
  65.8095     1      Mn       1      Mn       1        -0.527122869           0.613955681             0.527122869
  65.8095     2      Mn       1      Mn       1        -0.087866460           0.503043357             0.087928814
  65.8095     3      Mn       1      Mn       1         0.309860227           0.528962687             0.309860227
  65.8095     4      Mn       1      Mn       1         0.048286839           0.500427116             0.049489878
  65.8095     5      Mn       1      Mn       1        -0.264140440           0.521383308             0.264140440
  65.8095     6      Mn       1      Mn       1        -0.026281778           0.500022493             0.030727152
  65.8095     7      Mn       1      Mn       1         0.009806692           0.499824211             0.022062221
  66.8571     1      Mn       1      Mn       1        -0.519905711           0.610581868             0.519905711
  66.8571     2      Mn       1      Mn       1        -0.087325745           0.503009846             0.087374229
  66.8571     3      Mn       1      Mn       1         0.300824273           0.527099937             0.300824273
  66.8571     4      Mn       1      Mn       1         0.047207283           0.500399741             0.048325726
  66.8571     5      Mn       1      Mn       1        -0.255151935           0.519906967             0.255151935
  66.8571     6      Mn       1      Mn       1        -0.025160022           0.500014985             0.029475363
  66.8571     7      Mn       1      Mn       1         0.008535351           0.499832510             0.020956757
  67.9048     1      Mn       1      Mn       1        -0.512872005           0.607345551             0.512872005
  67.9048     2      Mn       1      Mn       1        -0.086629288           0.502941081             0.086670173
  67.9048     3      Mn       1      Mn       1         0.292119442           0.525363610             0.292119442
  67.9048     4      Mn       1      Mn       1         0.046006963           0.500362357             0.047054519
  67.9048     5      Mn       1      Mn       1        -0.246541978           0.518551202             0.246541978
  67.9048     6      Mn       1      Mn       1        -0.023958809           0.500005861             0.028198119
  67.9048     7      Mn       1      Mn       1         0.007196126           0.499834417             0.019911568
  68.9524     1      Mn       1      Mn       1        -0.505977423           0.604232513             0.505977423
  68.9524     2      Mn       1      Mn       1        -0.085965924           0.502896863             0.086001877
  68.9524     3      Mn       1      Mn       1         0.283709586           0.523755337             0.283709586
  68.9524     4      Mn       1      Mn       1         0.044841784           0.500340275             0.045869832
  68.9524     5      Mn       1      Mn       1        -0.238268184           0.517297847             0.238268184
  68.9524     6      Mn       1      Mn       1        -0.022812129           0.499995551             0.027057484
  68.9524     7      Mn       1      Mn       1         0.005938361           0.499842910             0.019071763
  70.0000     1      Mn       1      Mn       1        -0.499292510           0.601270859             0.499292510
  70.0000     2      Mn       1      Mn       1        -0.085203451           0.502837656             0.085232517
  70.0000     3      Mn       1      Mn       1         0.275641917           0.522269459             0.275641917
  70.0000     4      Mn       1      Mn       1         0.043631998           0.500307366             0.044623146
  70.0000     5      Mn       1      Mn       1        -0.230372919           0.516147706             0.230372919
  70.0000     6      Mn       1      Mn       1        -0.021652911           0.499986351             0.025882351
  70.0000     7      Mn       1      Mn       1         0.004676814           0.499857506             0.018220947
