 #written on 14Aug2019 at 12:42:25 
   # T =    4.0000
                  1
             1      0.11770467E+03
