 #written on  7Aug2021 at 22:47:11 
 #---------------------------------------------------- MONTECARLO ----------------------------------------------------#
 #  Temp    Shell   Atom1   Type1   Atom2   Type2   <\sum_{ij} Si.Sj/N>   <\sum_{ij}|Si.Sj|/N>   <|\sum_{ij}Si.Sj|/N> #
 #--------------------------------------------------------------------------------------------------------------------#
   4.0000     1      Mn       1      Mn       1        -0.976531755           0.976531755             0.976531755
   4.0000     2      Mn       1      Mn       1        -0.508344024           0.560433258             0.519145480
   4.0000     3      Mn       1      Mn       1         0.964564092           0.964564092             0.964564092
   4.0000     4      Mn       1      Mn       1         0.506630966           0.559102252             0.517710914
   4.0000     5      Mn       1      Mn       1        -0.961805715           0.961805715             0.961805715
   4.0000     6      Mn       1      Mn       1        -0.505476185           0.558228165             0.516736500
   4.0000     7      Mn       1      Mn       1         0.504712066           0.557633790             0.516090608
   5.0476     1      Mn       1      Mn       1        -0.970300277           0.970300277             0.970300277
   5.0476     2      Mn       1      Mn       1         0.732523227           0.733460391             0.732523227
   5.0476     3      Mn       1      Mn       1         0.955170553           0.955170553             0.955170553
   5.0476     4      Mn       1      Mn       1        -0.734985735           0.735890876             0.734985735
   5.0476     5      Mn       1      Mn       1        -0.951657646           0.951657646             0.951657646
   5.0476     6      Mn       1      Mn       1         0.736652392           0.737528173             0.736652392
   5.0476     7      Mn       1      Mn       1        -0.737761983           0.738621678             0.737761983
   6.0952     1      Mn       1      Mn       1        -0.964032255           0.964032255             0.964032255
   6.0952     2      Mn       1      Mn       1         0.831069491           0.831146341             0.831069491
   6.0952     3      Mn       1      Mn       1         0.945752266           0.945752266             0.945752266
   6.0952     4      Mn       1      Mn       1        -0.834315135           0.834385781             0.834315135
   6.0952     5      Mn       1      Mn       1        -0.941498819           0.941498819             0.941498819
   6.0952     6      Mn       1      Mn       1         0.836504338           0.836568971             0.836504338
   6.0952     7      Mn       1      Mn       1        -0.837962322           0.838024652             0.837962322
   7.1429     1      Mn       1      Mn       1        -0.957806820           0.957806820             0.957806820
   7.1429     2      Mn       1      Mn       1         0.749463891           0.751420700             0.749463891
   7.1429     3      Mn       1      Mn       1         0.936387160           0.936387160             0.936387160
   7.1429     4      Mn       1      Mn       1        -0.753068160           0.754961891             0.753068160
   7.1429     5      Mn       1      Mn       1        -0.931405342           0.931405345             0.931405342
   7.1429     6      Mn       1      Mn       1         0.755519800           0.757344451             0.755519800
   7.1429     7      Mn       1      Mn       1        -0.757150676           0.758942728             0.757150676
   8.1905     1      Mn       1      Mn       1        -0.951626206           0.951626212             0.951626206
   8.1905     2      Mn       1      Mn       1         0.666365057           0.684166394             0.666365057
   8.1905     3      Mn       1      Mn       1         0.927169651           0.927169664             0.927169651
   8.1905     4      Mn       1      Mn       1        -0.670286214           0.687762187             0.670286214
   8.1905     5      Mn       1      Mn       1        -0.921515577           0.921515601             0.921515577
   8.1905     6      Mn       1      Mn       1         0.672925541           0.690140327             0.672925541
   8.1905     7      Mn       1      Mn       1        -0.674688388           0.691757581             0.674688388
   9.2381     1      Mn       1      Mn       1        -0.945291152           0.945291154             0.945291152
   9.2381     2      Mn       1      Mn       1        -0.707348865           0.717211082             0.707348865
   9.2381     3      Mn       1      Mn       1         0.917671264           0.917671337             0.917671264
   9.2381     4      Mn       1      Mn       1         0.702774393           0.712891145             0.702774393
   9.2381     5      Mn       1      Mn       1        -0.911279690           0.911279980             0.911279690
   9.2381     6      Mn       1      Mn       1        -0.699691624           0.710062102             0.699691624
   9.2381     7      Mn       1      Mn       1         0.697637891           0.708147829             0.697637891
  10.2857     1      Mn       1      Mn       1        -0.938992713           0.938992717             0.938992713
  10.2857     2      Mn       1      Mn       1         0.654114289           0.673252405             0.655382870
  10.2857     3      Mn       1      Mn       1         0.908271788           0.908272119             0.908271788
  10.2857     4      Mn       1      Mn       1        -0.659041222           0.677767282             0.660255993
  10.2857     5      Mn       1      Mn       1        -0.901175404           0.901176360             0.901175404
  10.2857     6      Mn       1      Mn       1         0.662328137           0.680704471             0.663511211
  10.2857     7      Mn       1      Mn       1        -0.664537466           0.682718801             0.665696190
  11.3333     1      Mn       1      Mn       1        -0.932635977           0.932635992             0.932635977
  11.3333     2      Mn       1      Mn       1        -0.738427967           0.744831003             0.738427967
  11.3333     3      Mn       1      Mn       1         0.898816173           0.898817464             0.898816173
  11.3333     4      Mn       1      Mn       1         0.732663803           0.739284290             0.732663803
  11.3333     5      Mn       1      Mn       1        -0.890988214           0.890991650             0.890988214
  11.3333     6      Mn       1      Mn       1        -0.728802530           0.735657752             0.728802530
  11.3333     7      Mn       1      Mn       1         0.726231801           0.733208817             0.726231801
  12.3810     1      Mn       1      Mn       1        -0.926345163           0.926345234             0.926345163
  12.3810     2      Mn       1      Mn       1        -0.657119540           0.676975299             0.657207071
  12.3810     3      Mn       1      Mn       1         0.889435427           0.889439341             0.889435427
  12.3810     4      Mn       1      Mn       1         0.651101289           0.671529190             0.651204529
  12.3810     5      Mn       1      Mn       1        -0.880914334           0.880923758             0.880914334
  12.3810     6      Mn       1      Mn       1        -0.647079639           0.668034769             0.647192280
  12.3810     7      Mn       1      Mn       1         0.644392280           0.665630625             0.644512911
  13.4286     1      Mn       1      Mn       1        -0.919868346           0.919868570             0.919868346
  13.4286     2      Mn       1      Mn       1        -0.674009488           0.688653884             0.674009488
  13.4286     3      Mn       1      Mn       1         0.879756709           0.879766993             0.879756709
  13.4286     4      Mn       1      Mn       1         0.667377136           0.682567414             0.667377136
  13.4286     5      Mn       1      Mn       1        -0.870500506           0.870523574             0.870500506
  13.4286     6      Mn       1      Mn       1        -0.662942148           0.678654353             0.662942148
  13.4286     7      Mn       1      Mn       1         0.659992736           0.675988593             0.659992736
  14.4762     1      Mn       1      Mn       1        -0.913559527           0.913560260             0.913559527
  14.4762     2      Mn       1      Mn       1         0.661335120           0.675453100             0.661335120
  14.4762     3      Mn       1      Mn       1         0.870491215           0.870514059             0.870491215
  14.4762     4      Mn       1      Mn       1        -0.668337156           0.681860491             0.668337156
  14.4762     5      Mn       1      Mn       1        -0.860577578           0.860626232             0.860577578
  14.4762     6      Mn       1      Mn       1         0.672898018           0.685870978             0.672898018
  14.4762     7      Mn       1      Mn       1        -0.676008822           0.688688782             0.676008822
  15.5238     1      Mn       1      Mn       1        -0.907106179           0.907107971             0.907106179
  15.5238     2      Mn       1      Mn       1        -0.668639726           0.687016605             0.668639726
  15.5238     3      Mn       1      Mn       1         0.860878381           0.860925078             0.860878381
  15.5238     4      Mn       1      Mn       1         0.660914662           0.680030804             0.660914662
  15.5238     5      Mn       1      Mn       1        -0.850222948           0.850316531             0.850222948
  15.5238     6      Mn       1      Mn       1        -0.655772540           0.675597372             0.655772540
  15.5238     7      Mn       1      Mn       1         0.652329764           0.672554450             0.652329764
  16.5714     1      Mn       1      Mn       1        -0.900601624           0.900605770             0.900601624
  16.5714     2      Mn       1      Mn       1        -0.630343263           0.656468608             0.630343263
  16.5714     3      Mn       1      Mn       1         0.851205278           0.851292631             0.851205278
  16.5714     4      Mn       1      Mn       1         0.622239572           0.649414571             0.622239572
  16.5714     5      Mn       1      Mn       1        -0.839834662           0.840003793             0.839834662
  16.5714     6      Mn       1      Mn       1        -0.616839793           0.645032876             0.616839793
  16.5714     7      Mn       1      Mn       1         0.613227934           0.641989890             0.613227934
  17.6190     1      Mn       1      Mn       1        -0.894199989           0.894208412             0.894199989
  17.6190     2      Mn       1      Mn       1        -0.068701582           0.577254306             0.485682879
  17.6190     3      Mn       1      Mn       1         0.841783403           0.841935846             0.841783403
  17.6190     4      Mn       1      Mn       1         0.060650987           0.576407676             0.485585273
  17.6190     5      Mn       1      Mn       1        -0.829757331           0.830040847             0.829757331
  17.6190     6      Mn       1      Mn       1        -0.055426489           0.575767488             0.485428365
  17.6190     7      Mn       1      Mn       1         0.051864894           0.575419286             0.485394593
  18.6667     1      Mn       1      Mn       1        -0.887659689           0.887675662             0.887659689
  18.6667     2      Mn       1      Mn       1        -0.604518998           0.641539016             0.604518998
  18.6667     3      Mn       1      Mn       1         0.832109952           0.832358051             0.832109952
  18.6667     4      Mn       1      Mn       1         0.595454401           0.633932664             0.595454401
  18.6667     5      Mn       1      Mn       1        -0.819343341           0.819791954             0.819343341
  18.6667     6      Mn       1      Mn       1        -0.589500692           0.629295501             0.589500692
  18.6667     7      Mn       1      Mn       1         0.585472016           0.626035612             0.585472016
  19.7143     1      Mn       1      Mn       1        -0.881143984           0.881172608             0.881143984
  19.7143     2      Mn       1      Mn       1         0.228859278           0.554579467             0.435005703
  19.7143     3      Mn       1      Mn       1         0.822560511           0.822948432             0.822560511
  19.7143     4      Mn       1      Mn       1        -0.237748774           0.557658996             0.439556765
  19.7143     5      Mn       1      Mn       1        -0.809163218           0.809839813             0.809163218
  19.7143     6      Mn       1      Mn       1         0.243422684           0.559470126             0.442465149
  19.7143     7      Mn       1      Mn       1        -0.247348460           0.560835771             0.444544497
  20.7619     1      Mn       1      Mn       1        -0.874498062           0.874546400             0.874498062
  20.7619     2      Mn       1      Mn       1        -0.567312584           0.621522080             0.567366559
  20.7619     3      Mn       1      Mn       1         0.812723771           0.813307324             0.812723771
  20.7619     4      Mn       1      Mn       1         0.557328516           0.613633675             0.557402090
  20.7619     5      Mn       1      Mn       1        -0.798560679           0.799554579             0.798560679
  20.7619     6      Mn       1      Mn       1        -0.550863421           0.608950801             0.550951498
  20.7619     7      Mn       1      Mn       1         0.546455400           0.605587191             0.546556020
  21.8095     1      Mn       1      Mn       1        -0.867899833           0.867978510             0.867899833
  21.8095     2      Mn       1      Mn       1        -0.354776554           0.612495489             0.554586212
  21.8095     3      Mn       1      Mn       1         0.803041175           0.803884438             0.803041175
  21.8095     4      Mn       1      Mn       1         0.344289125           0.607295218             0.548257322
  21.8095     5      Mn       1      Mn       1        -0.788187523           0.789585878             0.788187523
  21.8095     6      Mn       1      Mn       1        -0.337500590           0.604212160             0.544115066
  21.8095     7      Mn       1      Mn       1         0.332850457           0.602045218             0.541318336
  22.8571     1      Mn       1      Mn       1        -0.861220715           0.861342043             0.861220715
  22.8571     2      Mn       1      Mn       1        -0.255804482           0.588571875             0.508686001
  22.8571     3      Mn       1      Mn       1         0.793167649           0.794355770             0.793167649
  22.8571     4      Mn       1      Mn       1         0.244994079           0.584639940             0.503611568
  22.8571     5      Mn       1      Mn       1        -0.777588656           0.779515744             0.777588656
  22.8571     6      Mn       1      Mn       1        -0.238046399           0.582315241             0.500253209
  22.8571     7      Mn       1      Mn       1         0.233269205           0.580680245             0.498007245
  23.9048     1      Mn       1      Mn       1        -0.854630019           0.854811267             0.854630019
  23.9048     2      Mn       1      Mn       1         0.283548557           0.554401004             0.447572381
  23.9048     3      Mn       1      Mn       1         0.783584164           0.785190556             0.783584164
  23.9048     4      Mn       1      Mn       1        -0.294544612           0.559022455             0.454658118
  23.9048     5      Mn       1      Mn       1        -0.767371494           0.769920659             0.767371494
  23.9048     6      Mn       1      Mn       1         0.301480135           0.561662967             0.459103606
  23.9048     7      Mn       1      Mn       1        -0.306329876           0.563699829             0.462248856
  24.9524     1      Mn       1      Mn       1        -0.847799812           0.848063065             0.847799812
  24.9524     2      Mn       1      Mn       1        -0.212201079           0.556081312             0.431361674
  24.9524     3      Mn       1      Mn       1         0.773526178           0.775683513             0.773526178
  24.9524     4      Mn       1      Mn       1         0.200654549           0.552550135             0.427012954
  24.9524     5      Mn       1      Mn       1        -0.756584628           0.759947352             0.756584628
  24.9524     6      Mn       1      Mn       1        -0.193372049           0.550579088             0.424219042
  24.9524     7      Mn       1      Mn       1         0.188300089           0.549160235             0.422355395
  26.0000     1      Mn       1      Mn       1        -0.841012191           0.841383544             0.841012191
  26.0000     2      Mn       1      Mn       1        -0.394421574           0.575351249             0.470458986
  26.0000     3      Mn       1      Mn       1         0.763551475           0.766371360             0.763551475
  26.0000     4      Mn       1      Mn       1         0.382104679           0.568505725             0.461057495
  26.0000     5      Mn       1      Mn       1        -0.745874272           0.750190252             0.745874272
  26.0000     6      Mn       1      Mn       1        -0.374260459           0.564623256             0.454986603
  26.0000     7      Mn       1      Mn       1         0.368811953           0.561772454             0.450822216
  27.0476     1      Mn       1      Mn       1        -0.834194550           0.834707678             0.834194550
  27.0476     2      Mn       1      Mn       1        -0.235412959           0.544490902             0.388091255
  27.0476     3      Mn       1      Mn       1         0.753588715           0.757194669             0.753588715
  27.0476     4      Mn       1      Mn       1         0.222925770           0.540294444             0.382124233
  27.0476     5      Mn       1      Mn       1        -0.735233345           0.740651609             0.735233345
  27.0476     6      Mn       1      Mn       1        -0.215135678           0.538007026             0.378337441
  27.0476     7      Mn       1      Mn       1         0.209677400           0.536326253             0.375795883
  28.0952     1      Mn       1      Mn       1        -0.827363146           0.828050550             0.827363146
  28.0952     2      Mn       1      Mn       1         0.126830471           0.534806597             0.384606783
  28.0952     3      Mn       1      Mn       1         0.743670186           0.748208955             0.743670186
  28.0952     4      Mn       1      Mn       1        -0.139719963           0.537299811             0.389476859
  28.0952     5      Mn       1      Mn       1        -0.724649344           0.731387642             0.724649344
  28.0952     6      Mn       1      Mn       1         0.147684909           0.538691211             0.392435268
  28.0952     7      Mn       1      Mn       1        -0.153334956           0.539845201             0.394606301
  29.1429     1      Mn       1      Mn       1        -0.820488105           0.821401507             0.820488105
  29.1429     2      Mn       1      Mn       1        -0.265058951           0.538216400             0.373173689
  29.1429     3      Mn       1      Mn       1         0.733623684           0.739266381             0.733623684
  29.1429     4      Mn       1      Mn       1         0.251563425           0.533243196             0.365403470
  29.1429     5      Mn       1      Mn       1        -0.713891299           0.722143941             0.713891299
  29.1429     6      Mn       1      Mn       1        -0.243191482           0.530613124             0.360534751
  29.1429     7      Mn       1      Mn       1         0.237293338           0.528631926             0.357195210
  30.1905     1      Mn       1      Mn       1        -0.813513225           0.814694466             0.813513225
  30.1905     2      Mn       1      Mn       1         0.066004871           0.523850622             0.339883772
  30.1905     3      Mn       1      Mn       1         0.723442930           0.730351361             0.723442930
  30.1905     4      Mn       1      Mn       1        -0.079883546           0.525293996             0.344237545
  30.1905     5      Mn       1      Mn       1        -0.703018598           0.712977767             0.703018598
  30.1905     6      Mn       1      Mn       1         0.088407985           0.526094310             0.346867642
  30.1905     7      Mn       1      Mn       1        -0.094475294           0.526811799             0.348819328
  31.2381     1      Mn       1      Mn       1        -0.806353673           0.807880123             0.806353673
  31.2381     2      Mn       1      Mn       1        -0.085033658           0.521543693             0.316351139
  31.2381     3      Mn       1      Mn       1         0.712920486           0.721354849             0.712920486
  31.2381     4      Mn       1      Mn       1         0.070623341           0.519930426             0.313479780
  31.2381     5      Mn       1      Mn       1        -0.691752919           0.703765087             0.691752919
  31.2381     6      Mn       1      Mn       1        -0.061808572           0.519163315             0.311708244
  31.2381     7      Mn       1      Mn       1         0.055537038           0.518633823             0.310561912
  32.2857     1      Mn       1      Mn       1        -0.799269054           0.801192778             0.799269054
  32.2857     2      Mn       1      Mn       1        -0.050688418           0.506076677             0.255798774
  32.2857     3      Mn       1      Mn       1         0.702646882           0.712754037             0.702646882
  32.2857     4      Mn       1      Mn       1         0.035986438           0.505194539             0.254559880
  32.2857     5      Mn       1      Mn       1        -0.680783580           0.695010613             0.680783580
  32.2857     6      Mn       1      Mn       1        -0.027123293           0.504834043             0.253845116
  32.2857     7      Mn       1      Mn       1         0.020727809           0.504597391             0.253437226
  33.3333     1      Mn       1      Mn       1        -0.792088595           0.794488013             0.792088595
  33.3333     2      Mn       1      Mn       1        -0.057823754           0.513325107             0.276009181
  33.3333     3      Mn       1      Mn       1         0.692093795           0.704120923             0.692093795
  33.3333     4      Mn       1      Mn       1         0.042429278           0.512215545             0.273883026
  33.3333     5      Mn       1      Mn       1        -0.669457837           0.686212262             0.669457837
  33.3333     6      Mn       1      Mn       1        -0.033144889           0.511693643             0.272640665
  33.3333     7      Mn       1      Mn       1         0.026469421           0.511360689             0.271900152
  34.3810     1      Mn       1      Mn       1        -0.784885156           0.787837335             0.784885156
  34.3810     2      Mn       1      Mn       1        -0.009775218           0.503736949             0.224863809
  34.3810     3      Mn       1      Mn       1         0.681609447           0.695770819             0.681609447
  34.3810     4      Mn       1      Mn       1        -0.005994315           0.503783079             0.225663911
  34.3810     5      Mn       1      Mn       1        -0.658255072           0.677782661             0.658255072
  34.3810     6      Mn       1      Mn       1         0.015414814           0.503905203             0.226292421
  34.3810     7      Mn       1      Mn       1        -0.022252331           0.504075461             0.226975339
  35.4286     1      Mn       1      Mn       1        -0.777650283           0.781242141             0.777650283
  35.4286     2      Mn       1      Mn       1        -0.089873883           0.512925415             0.257995601
  35.4286     3      Mn       1      Mn       1         0.671121467           0.687640808             0.671121467
  35.4286     4      Mn       1      Mn       1         0.073318353           0.511085879             0.254868766
  35.4286     5      Mn       1      Mn       1        -0.647078743           0.669638528             0.647078743
  35.4286     6      Mn       1      Mn       1        -0.063382448           0.510281117             0.253085864
  35.4286     7      Mn       1      Mn       1         0.056208039           0.509712342             0.251983532
  36.4762     1      Mn       1      Mn       1        -0.770070889           0.774430205             0.770070889
  36.4762     2      Mn       1      Mn       1        -0.122703686           0.512408382             0.246456423
  36.4762     3      Mn       1      Mn       1         0.659997302           0.679274854             0.659997302
  36.4762     4      Mn       1      Mn       1         0.105542437           0.509668615             0.240935825
  36.4762     5      Mn       1      Mn       1        -0.635145242           0.661232786             0.635145242
  36.4762     6      Mn       1      Mn       1        -0.095298875           0.508472669             0.237714529
  36.4762     7      Mn       1      Mn       1         0.087876917           0.507587107             0.235589786
  37.5238     1      Mn       1      Mn       1        -0.762519341           0.767741869             0.762519341
  37.5238     2      Mn       1      Mn       1        -0.157395433           0.517288431             0.265986576
  37.5238     3      Mn       1      Mn       1         0.648940705           0.671187881             0.648940705
  37.5238     4      Mn       1      Mn       1         0.139463348           0.513640453             0.259125426
  37.5238     5      Mn       1      Mn       1        -0.623311943           0.653155752             0.623311943
  37.5238     6      Mn       1      Mn       1        -0.128665689           0.512017495             0.255046775
  37.5238     7      Mn       1      Mn       1         0.120891716           0.510772614             0.252288027
  38.5714     1      Mn       1      Mn       1        -0.754895820           0.761114398             0.754895820
  38.5714     2      Mn       1      Mn       1        -0.066836456           0.506606688             0.205312439
  38.5714     3      Mn       1      Mn       1         0.637841711           0.663382217             0.637841711
  38.5714     4      Mn       1      Mn       1         0.048525040           0.505215218             0.202690490
  38.5714     5      Mn       1      Mn       1        -0.611471179           0.645443501             0.611471179
  38.5714     6      Mn       1      Mn       1        -0.037666063           0.504719386             0.201397395
  38.5714     7      Mn       1      Mn       1         0.029753988           0.504397561             0.200708583
  39.6190     1      Mn       1      Mn       1        -0.747082392           0.754433164             0.747082392
  39.6190     2      Mn       1      Mn       1        -0.129446507           0.510726739             0.218080409
  39.6190     3      Mn       1      Mn       1         0.626338799           0.655573246             0.626338799
  39.6190     4      Mn       1      Mn       1         0.110317685           0.507656347             0.210733335
  39.6190     5      Mn       1      Mn       1        -0.599107848           0.637716285             0.599107848
  39.6190     6      Mn       1      Mn       1        -0.098898778           0.506340188             0.206489444
  39.6190     7      Mn       1      Mn       1         0.090614541           0.505302764             0.203684187
  40.6667     1      Mn       1      Mn       1        -0.739011109           0.747658164             0.739011109
  40.6667     2      Mn       1      Mn       1        -0.075468017           0.504949519             0.182254869
  40.6667     3      Mn       1      Mn       1         0.614335339           0.647708817             0.614335339
  40.6667     4      Mn       1      Mn       1         0.055768745           0.503263209             0.177723949
  40.6667     5      Mn       1      Mn       1        -0.586215653           0.629987575             0.586215653
  40.6667     6      Mn       1      Mn       1        -0.044080552           0.502664535             0.175401712
  40.6667     7      Mn       1      Mn       1         0.035580604           0.502250565             0.174051443
  41.7143     1      Mn       1      Mn       1        -0.730803270           0.740929562             0.730803270
  41.7143     2      Mn       1      Mn       1        -0.014030503           0.501144669             0.156123709
  41.7143     3      Mn       1      Mn       1         0.602093226           0.640044071             0.602093226
  41.7143     4      Mn       1      Mn       1        -0.006356266           0.501135848             0.157519033
  41.7143     5      Mn       1      Mn       1        -0.573011292           0.622436081             0.573011292
  41.7143     6      Mn       1      Mn       1         0.018515008           0.501335242             0.158799367
  41.7143     7      Mn       1      Mn       1        -0.027361644           0.501616528             0.160138419
  42.7619     1      Mn       1      Mn       1        -0.722306256           0.734114379             0.722306256
  42.7619     2      Mn       1      Mn       1        -0.104148804           0.506814961             0.169843310
  42.7619     3      Mn       1      Mn       1         0.589406269           0.632429353             0.589406269
  42.7619     4      Mn       1      Mn       1         0.082893011           0.504275924             0.161817830
  42.7619     5      Mn       1      Mn       1        -0.559347114           0.615039080             0.559347114
  42.7619     6      Mn       1      Mn       1        -0.070191603           0.503295191             0.157597926
  42.7619     7      Mn       1      Mn       1         0.060977279           0.502562810             0.154980529
  43.8095     1      Mn       1      Mn       1        -0.713536937           0.727237448             0.713536937
  43.8095     2      Mn       1      Mn       1        -0.078184398           0.503991122             0.144598621
  43.8095     3      Mn       1      Mn       1         0.576110050           0.624807602             0.576110050
  43.8095     4      Mn       1      Mn       1         0.056196806           0.502143341             0.137516587
  43.8095     5      Mn       1      Mn       1        -0.544939574           0.607615169             0.544939574
  43.8095     6      Mn       1      Mn       1        -0.043060239           0.501556110             0.134023042
  43.8095     7      Mn       1      Mn       1         0.033537221           0.501134056             0.132096876
  44.8571     1      Mn       1      Mn       1        -0.704722777           0.720510541             0.704722777
  44.8571     2      Mn       1      Mn       1        -0.087706611           0.504056756             0.132413894
  44.8571     3      Mn       1      Mn       1         0.562841206           0.617584597             0.562841206
  44.8571     4      Mn       1      Mn       1         0.064823595           0.501905320             0.122642023
  44.8571     5      Mn       1      Mn       1        -0.530598380           0.600659995             0.530598380
  44.8571     6      Mn       1      Mn       1        -0.051028821           0.501187060             0.117582478
  44.8571     7      Mn       1      Mn       1         0.041088807           0.500661652             0.114654188
  45.9048     1      Mn       1      Mn       1        -0.695901690           0.713928612             0.695901690
  45.9048     2      Mn       1      Mn       1        -0.079830080           0.503576754             0.123294990
  45.9048     3      Mn       1      Mn       1         0.549699461           0.610735983             0.549699461
  45.9048     4      Mn       1      Mn       1         0.056188486           0.501655766             0.113736075
  45.9048     5      Mn       1      Mn       1        -0.516462991           0.594134534             0.516462991
  45.9048     6      Mn       1      Mn       1        -0.042008821           0.501048104             0.109130527
  45.9048     7      Mn       1      Mn       1         0.031751501           0.500631995             0.106667857
  46.9524     1      Mn       1      Mn       1        -0.686186915           0.706903832             0.686186915
  46.9524     2      Mn       1      Mn       1        -0.085693299           0.504090834             0.115581906
  46.9524     3      Mn       1      Mn       1         0.534696857           0.603369079             0.534696857
  46.9524     4      Mn       1      Mn       1         0.061015888           0.501889278             0.103708304
  46.9524     5      Mn       1      Mn       1        -0.500116569           0.587119102             0.500116569
  46.9524     6      Mn       1      Mn       1        -0.046046359           0.501205857             0.097863990
  46.9524     7      Mn       1      Mn       1         0.035289482           0.500736970             0.094720385
  48.0000     1      Mn       1      Mn       1        -0.676667002           0.700154555             0.676667002
  48.0000     2      Mn       1      Mn       1        -0.082602166           0.503524495             0.105929034
  48.0000     3      Mn       1      Mn       1         0.520276023           0.596593829             0.520276023
  48.0000     4      Mn       1      Mn       1         0.056998953           0.501394983             0.092523619
  48.0000     5      Mn       1      Mn       1        -0.484525689           0.580700138             0.484525689
  48.0000     6      Mn       1      Mn       1        -0.041447010           0.500744766             0.086074486
  48.0000     7      Mn       1      Mn       1         0.030317899           0.500339542             0.082679605
  49.0476     1      Mn       1      Mn       1        -0.666660085           0.693286064             0.666660085
  49.0476     2      Mn       1      Mn       1        -0.092462791           0.503929860             0.104390662
  49.0476     3      Mn       1      Mn       1         0.504961660           0.589805186             0.504961660
  49.0476     4      Mn       1      Mn       1         0.065793079           0.501466623             0.087130336
  49.0476     5      Mn       1      Mn       1        -0.467905364           0.574346097             0.467905364
  49.0476     6      Mn       1      Mn       1        -0.049509316           0.500702711             0.078353319
  49.0476     7      Mn       1      Mn       1         0.037871426           0.500164100             0.073498403
  50.0952     1      Mn       1      Mn       1        -0.657020187           0.686827834             0.657020187
  50.0952     2      Mn       1      Mn       1        -0.094041398           0.504138068             0.100672925
  50.0952     3      Mn       1      Mn       1         0.490359024           0.583643692             0.490359024
  50.0952     4      Mn       1      Mn       1         0.066385080           0.501558362             0.080222481
  50.0952     5      Mn       1      Mn       1        -0.452122812           0.568636300             0.452122812
  50.0952     6      Mn       1      Mn       1        -0.049465824           0.500741480             0.069739391
  50.0952     7      Mn       1      Mn       1         0.037413410           0.500226796             0.063922842
  51.1429     1      Mn       1      Mn       1        -0.647494896           0.680622766             0.647494896
  51.1429     2      Mn       1      Mn       1        -0.092396118           0.503905892             0.099999911
  51.1429     3      Mn       1      Mn       1         0.476296561           0.578031877             0.476296561
  51.1429     4      Mn       1      Mn       1         0.063793347           0.501364263             0.078693612
  51.1429     5      Mn       1      Mn       1        -0.437090091           0.563527869             0.437090091
  51.1429     6      Mn       1      Mn       1        -0.046251124           0.500622332             0.067562173
  51.1429     7      Mn       1      Mn       1         0.033764681           0.500107232             0.061406205
  52.1905     1      Mn       1      Mn       1        -0.637819296           0.674473678             0.637819296
  52.1905     2      Mn       1      Mn       1        -0.092590861           0.503684844             0.096402621
  52.1905     3      Mn       1      Mn       1         0.461889841           0.572508051             0.461889841
  52.1905     4      Mn       1      Mn       1         0.062948983           0.501115208             0.072560907
  52.1905     5      Mn       1      Mn       1        -0.421652014           0.558525335             0.421652014
  52.1905     6      Mn       1      Mn       1        -0.044715134           0.500408313             0.060159371
  52.1905     7      Mn       1      Mn       1         0.031780127           0.499927282             0.053422468
  53.2381     1      Mn       1      Mn       1        -0.628068647           0.668422786             0.628068647
  53.2381     2      Mn       1      Mn       1        -0.091287315           0.503701322             0.093785954
  53.2381     3      Mn       1      Mn       1         0.447473427           0.567298960             0.447473427
  53.2381     4      Mn       1      Mn       1         0.060733913           0.501121127             0.067969800
  53.2381     5      Mn       1      Mn       1        -0.406248427           0.553823734             0.406248427
  53.2381     6      Mn       1      Mn       1        -0.042052631           0.500409681             0.054640754
  53.2381     7      Mn       1      Mn       1         0.028769104           0.499988899             0.047542873
  54.2857     1      Mn       1      Mn       1        -0.618868210           0.662850675             0.618868210
  54.2857     2      Mn       1      Mn       1        -0.094237025           0.503820641             0.095609942
  54.2857     3      Mn       1      Mn       1         0.434209527           0.562671360             0.434209527
  54.2857     4      Mn       1      Mn       1         0.062726715           0.501109853             0.067631392
  54.2857     5      Mn       1      Mn       1        -0.392223722           0.549754637             0.392223722
  54.2857     6      Mn       1      Mn       1        -0.043463914           0.500408010             0.052893113
  54.2857     7      Mn       1      Mn       1         0.029747367           0.499975522             0.044856789
  55.3333     1      Mn       1      Mn       1        -0.609689933           0.657436024             0.609689933
  55.3333     2      Mn       1      Mn       1        -0.096282726           0.503851061             0.097298496
  55.3333     3      Mn       1      Mn       1         0.421078570           0.558361588             0.421078570
  55.3333     4      Mn       1      Mn       1         0.063898946           0.501053739             0.067827704
  55.3333     5      Mn       1      Mn       1        -0.378386252           0.545986197             0.378386252
  55.3333     6      Mn       1      Mn       1        -0.044155585           0.500332596             0.052106766
  55.3333     7      Mn       1      Mn       1         0.030082819           0.499877543             0.043402201
  56.3810     1      Mn       1      Mn       1        -0.600729787           0.652262679             0.600729787
  56.3810     2      Mn       1      Mn       1        -0.092541481           0.503535850             0.093279694
  56.3810     3      Mn       1      Mn       1         0.408426094           0.554371671             0.408426094
  56.3810     4      Mn       1      Mn       1         0.059383536           0.500880265             0.062949684
  56.3810     5      Mn       1      Mn       1        -0.365154062           0.542513289             0.365154062
  56.3810     6      Mn       1      Mn       1        -0.039359969           0.500244379             0.047107777
  56.3810     7      Mn       1      Mn       1         0.025030947           0.499852822             0.038636975
  57.4286     1      Mn       1      Mn       1        -0.591861817           0.647245179             0.591861817
  57.4286     2      Mn       1      Mn       1        -0.089821707           0.503303135             0.090581973
  57.4286     3      Mn       1      Mn       1         0.395960118           0.550611311             0.395960118
  57.4286     4      Mn       1      Mn       1         0.055819048           0.500708433             0.059494920
  57.4286     5      Mn       1      Mn       1        -0.352091758           0.539271406             0.352091758
  57.4286     6      Mn       1      Mn       1        -0.035430824           0.500156821             0.043489074
  57.4286     7      Mn       1      Mn       1         0.020783976           0.499832607             0.035241376
  58.4762     1      Mn       1      Mn       1        -0.582962959           0.642327988             0.582962959
  58.4762     2      Mn       1      Mn       1        -0.091358621           0.503425834             0.091700014
  58.4762     3      Mn       1      Mn       1         0.383574201           0.547006405             0.383574201
  58.4762     4      Mn       1      Mn       1         0.056482524           0.500743240             0.058888566
  58.4762     5      Mn       1      Mn       1        -0.339195654           0.536208383             0.339195654
  58.4762     6      Mn       1      Mn       1        -0.035701334           0.500165919             0.041898505
  58.4762     7      Mn       1      Mn       1         0.020730971           0.499824460             0.033141624
  59.5238     1      Mn       1      Mn       1        -0.574535570           0.637788191             0.574535570
  59.5238     2      Mn       1      Mn       1        -0.091408616           0.503430442             0.091697318
  59.5238     3      Mn       1      Mn       1         0.372077654           0.543868160             0.372077654
  59.5238     4      Mn       1      Mn       1         0.055796570           0.500699948             0.058021512
  59.5238     5      Mn       1      Mn       1        -0.327318909           0.533575965             0.327318909
  59.5238     6      Mn       1      Mn       1        -0.034746156           0.500133712             0.040654225
  59.5238     7      Mn       1      Mn       1         0.019521730           0.499821868             0.031633530
  60.5714     1      Mn       1      Mn       1        -0.566165993           0.633365016             0.566165993
  60.5714     2      Mn       1      Mn       1        -0.091394516           0.503368046             0.091596344
  60.5714     3      Mn       1      Mn       1         0.360788676           0.540883575             0.360788676
  60.5714     4      Mn       1      Mn       1         0.054978652           0.500683310             0.056911129
  60.5714     5      Mn       1      Mn       1        -0.315714881           0.531094220             0.315714881
  60.5714     6      Mn       1      Mn       1        -0.033608572           0.500149801             0.038990467
  60.5714     7      Mn       1      Mn       1         0.018104637           0.499836646             0.029690297
  61.6190     1      Mn       1      Mn       1        -0.557933069           0.629117748             0.557933069
  61.6190     2      Mn       1      Mn       1        -0.090796891           0.503304572             0.090945416
  61.6190     3      Mn       1      Mn       1         0.349715683           0.538096231             0.349715683
  61.6190     4      Mn       1      Mn       1         0.053670318           0.500605850             0.055298859
  61.6190     5      Mn       1      Mn       1        -0.304354631           0.528748904             0.304354631
  61.6190     6      Mn       1      Mn       1        -0.032066124           0.500096301             0.037019283
  61.6190     7      Mn       1      Mn       1         0.016306898           0.499802087             0.027817601
  62.6667     1      Mn       1      Mn       1        -0.549994252           0.625092782             0.549994252
  62.6667     2      Mn       1      Mn       1        -0.089169891           0.503220974             0.089313947
  62.6667     3      Mn       1      Mn       1         0.339295247           0.535562768             0.339295247
  62.6667     4      Mn       1      Mn       1         0.051429521           0.500565662             0.053095525
  62.6667     5      Mn       1      Mn       1        -0.293804008           0.526722477             0.293804008
  62.6667     6      Mn       1      Mn       1        -0.029745264           0.500088184             0.034925384
  62.6667     7      Mn       1      Mn       1         0.013812241           0.499801667             0.026075278
  63.7143     1      Mn       1      Mn       1        -0.542185275           0.621218736             0.542185275
  63.7143     2      Mn       1      Mn       1        -0.088972908           0.503122145             0.089064771
  63.7143     3      Mn       1      Mn       1         0.329099185           0.533171413             0.329099185
  63.7143     4      Mn       1      Mn       1         0.050564683           0.500488802             0.051967075
  63.7143     5      Mn       1      Mn       1        -0.283482180           0.524752613             0.283482180
  63.7143     6      Mn       1      Mn       1        -0.028712657           0.500059590             0.033460764
  63.7143     7      Mn       1      Mn       1         0.012590347           0.499824075             0.024598605
  64.7619     1      Mn       1      Mn       1        -0.534572594           0.617493027             0.534572594
  64.7619     2      Mn       1      Mn       1        -0.087823976           0.503015850             0.087890599
  64.7619     3      Mn       1      Mn       1         0.319339778           0.531001991             0.319339778
  64.7619     4      Mn       1      Mn       1         0.048819801           0.500430763             0.050116124
  64.7619     5      Mn       1      Mn       1        -0.273663512           0.523029790             0.273663512
  64.7619     6      Mn       1      Mn       1        -0.026871862           0.500005944             0.031613285
  64.7619     7      Mn       1      Mn       1         0.010558042           0.499828125             0.023024420
  65.8095     1      Mn       1      Mn       1        -0.527074952           0.613923640             0.527074952
  65.8095     2      Mn       1      Mn       1        -0.087809598           0.503067364             0.087871049
  65.8095     3      Mn       1      Mn       1         0.309780104           0.528946964             0.309780104
  65.8095     4      Mn       1      Mn       1         0.048201526           0.500425523             0.049407120
  65.8095     5      Mn       1      Mn       1        -0.264061593           0.521354934             0.264061593
  65.8095     6      Mn       1      Mn       1        -0.026164862           0.500024382             0.030579309
  65.8095     7      Mn       1      Mn       1         0.009687166           0.499828155             0.021876619
  66.8571     1      Mn       1      Mn       1        -0.519915613           0.610590291             0.519915613
  66.8571     2      Mn       1      Mn       1        -0.087088602           0.503014018             0.087141437
  66.8571     3      Mn       1      Mn       1         0.300840160           0.527110838             0.300840160
  66.8571     4      Mn       1      Mn       1         0.046972838           0.500369646             0.048101744
  66.8571     5      Mn       1      Mn       1        -0.255194655           0.519948460             0.255194655
  66.8571     6      Mn       1      Mn       1        -0.024943332           0.500013402             0.029265372
  66.8571     7      Mn       1      Mn       1         0.008336340           0.499812745             0.020811195
  67.9048     1      Mn       1      Mn       1        -0.512789929           0.607302825             0.512789929
  67.9048     2      Mn       1      Mn       1        -0.086788062           0.502958432             0.086824839
  67.9048     3      Mn       1      Mn       1         0.292029070           0.525353988             0.292029070
  67.9048     4      Mn       1      Mn       1         0.046162862           0.500380669             0.047166161
  67.9048     5      Mn       1      Mn       1        -0.246467953           0.518560921             0.246467953
  67.9048     6      Mn       1      Mn       1        -0.024112246           0.500021612             0.028304935
  67.9048     7      Mn       1      Mn       1         0.007351733           0.499856068             0.020070848
  68.9524     1      Mn       1      Mn       1        -0.506080634           0.604288707             0.506080634
  68.9524     2      Mn       1      Mn       1        -0.085936684           0.502912404             0.085970744
  68.9524     3      Mn       1      Mn       1         0.283835548           0.523791637             0.283835548
  68.9524     4      Mn       1      Mn       1         0.044850772           0.500334279             0.045857009
  68.9524     5      Mn       1      Mn       1        -0.238390266           0.517321080             0.238390266
  68.9524     6      Mn       1      Mn       1        -0.022863165           0.499986296             0.027038848
  68.9524     7      Mn       1      Mn       1         0.006009349           0.499843676             0.019000435
  70.0000     1      Mn       1      Mn       1        -0.499312349           0.601275780             0.499312349
  70.0000     2      Mn       1      Mn       1        -0.085749511           0.502866209             0.085778688
  70.0000     3      Mn       1      Mn       1         0.275695698           0.522288911             0.275695698
  70.0000     4      Mn       1      Mn       1         0.044204634           0.500313631             0.045165394
  70.0000     5      Mn       1      Mn       1        -0.230458302           0.516147393             0.230458302
  70.0000     6      Mn       1      Mn       1        -0.022224837           0.499993152             0.026318059
  70.0000     7      Mn       1      Mn       1         0.005254603           0.499879914             0.018400859
