 #written on  7Aug2021 at 22:47:11 
 #----------------- MONTECARLO -------------------#
 #        M                      P(M)             #
 #------------------------------------------------#
 #T=     4.0000
  -0.40000000E+01           0.00000000E+00
  -0.39900000E+01           0.00000000E+00
  -0.39800000E+01           0.00000000E+00
  -0.39700000E+01           0.00000000E+00
  -0.39600000E+01           0.00000000E+00
  -0.39500000E+01           0.00000000E+00
  -0.39400000E+01           0.00000000E+00
  -0.39300000E+01           0.00000000E+00
  -0.39200000E+01           0.00000000E+00
  -0.39100000E+01           0.00000000E+00
  -0.39000000E+01           0.00000000E+00
  -0.38900000E+01           0.00000000E+00
  -0.38800000E+01           0.00000000E+00
  -0.38700000E+01           0.00000000E+00
  -0.38600000E+01           0.00000000E+00
  -0.38500000E+01           0.00000000E+00
  -0.38400000E+01           0.00000000E+00
  -0.38300000E+01           0.00000000E+00
  -0.38200000E+01           0.00000000E+00
  -0.38100000E+01           0.00000000E+00
  -0.38000000E+01           0.00000000E+00
  -0.37900000E+01           0.00000000E+00
  -0.37800000E+01           0.00000000E+00
  -0.37700000E+01           0.00000000E+00
  -0.37600000E+01           0.00000000E+00
  -0.37500000E+01           0.00000000E+00
  -0.37400000E+01           0.00000000E+00
  -0.37300000E+01           0.00000000E+00
  -0.37200000E+01           0.00000000E+00
  -0.37100000E+01           0.00000000E+00
  -0.37000000E+01           0.00000000E+00
  -0.36900000E+01           0.00000000E+00
  -0.36800000E+01           0.00000000E+00
  -0.36700000E+01           0.00000000E+00
  -0.36600000E+01           0.00000000E+00
  -0.36500000E+01           0.00000000E+00
  -0.36400000E+01           0.00000000E+00
  -0.36300000E+01           0.00000000E+00
  -0.36200000E+01           0.00000000E+00
  -0.36100000E+01           0.00000000E+00
  -0.36000000E+01           0.00000000E+00
  -0.35900000E+01           0.00000000E+00
  -0.35800000E+01           0.00000000E+00
  -0.35700000E+01           0.00000000E+00
  -0.35600000E+01           0.00000000E+00
  -0.35500000E+01           0.00000000E+00
  -0.35400000E+01           0.00000000E+00
  -0.35300000E+01           0.00000000E+00
  -0.35200000E+01           0.00000000E+00
  -0.35100000E+01           0.00000000E+00
  -0.35000000E+01           0.00000000E+00
  -0.34900000E+01           0.00000000E+00
  -0.34800000E+01           0.00000000E+00
  -0.34700000E+01           0.00000000E+00
  -0.34600000E+01           0.00000000E+00
  -0.34500000E+01           0.00000000E+00
  -0.34400000E+01           0.00000000E+00
  -0.34300000E+01           0.00000000E+00
  -0.34200000E+01           0.00000000E+00
  -0.34100000E+01           0.00000000E+00
  -0.34000000E+01           0.00000000E+00
  -0.33900000E+01           0.00000000E+00
  -0.33800000E+01           0.00000000E+00
  -0.33700000E+01           0.00000000E+00
  -0.33600000E+01           0.00000000E+00
  -0.33500000E+01           0.00000000E+00
  -0.33400000E+01           0.00000000E+00
  -0.33300000E+01           0.00000000E+00
  -0.33200000E+01           0.00000000E+00
  -0.33100000E+01           0.00000000E+00
  -0.33000000E+01           0.00000000E+00
  -0.32900000E+01           0.00000000E+00
  -0.32800000E+01           0.00000000E+00
  -0.32700000E+01           0.00000000E+00
  -0.32600000E+01           0.00000000E+00
  -0.32500000E+01           0.00000000E+00
  -0.32400000E+01           0.00000000E+00
  -0.32300000E+01           0.00000000E+00
  -0.32200000E+01           0.00000000E+00
  -0.32100000E+01           0.00000000E+00
  -0.32000000E+01           0.00000000E+00
  -0.31900000E+01           0.00000000E+00
  -0.31800000E+01           0.00000000E+00
  -0.31700000E+01           0.00000000E+00
  -0.31600000E+01           0.00000000E+00
  -0.31500000E+01           0.00000000E+00
  -0.31400000E+01           0.00000000E+00
  -0.31300000E+01           0.00000000E+00
  -0.31200000E+01           0.00000000E+00
  -0.31100000E+01           0.00000000E+00
  -0.31000000E+01           0.00000000E+00
  -0.30900000E+01           0.00000000E+00
  -0.30800000E+01           0.00000000E+00
  -0.30700000E+01           0.00000000E+00
  -0.30600000E+01           0.00000000E+00
  -0.30500000E+01           0.00000000E+00
  -0.30400000E+01           0.00000000E+00
  -0.30300000E+01           0.00000000E+00
  -0.30200000E+01           0.00000000E+00
  -0.30100000E+01           0.00000000E+00
  -0.30000000E+01           0.00000000E+00
  -0.29900000E+01           0.00000000E+00
  -0.29800000E+01           0.00000000E+00
  -0.29700000E+01           0.00000000E+00
  -0.29600000E+01           0.00000000E+00
  -0.29500000E+01           0.00000000E+00
  -0.29400000E+01           0.00000000E+00
  -0.29300000E+01           0.00000000E+00
  -0.29200000E+01           0.00000000E+00
  -0.29100000E+01           0.00000000E+00
  -0.29000000E+01           0.00000000E+00
  -0.28900000E+01           0.00000000E+00
  -0.28800000E+01           0.00000000E+00
  -0.28700000E+01           0.00000000E+00
  -0.28600000E+01           0.00000000E+00
  -0.28500000E+01           0.00000000E+00
  -0.28400000E+01           0.00000000E+00
  -0.28300000E+01           0.00000000E+00
  -0.28200000E+01           0.00000000E+00
  -0.28100000E+01           0.00000000E+00
  -0.28000000E+01           0.00000000E+00
  -0.27900000E+01           0.00000000E+00
  -0.27800000E+01           0.00000000E+00
  -0.27700000E+01           0.00000000E+00
  -0.27600000E+01           0.00000000E+00
  -0.27500000E+01           0.00000000E+00
  -0.27400000E+01           0.00000000E+00
  -0.27300000E+01           0.00000000E+00
  -0.27200000E+01           0.00000000E+00
  -0.27100000E+01           0.00000000E+00
  -0.27000000E+01           0.00000000E+00
  -0.26900000E+01           0.00000000E+00
  -0.26800000E+01           0.00000000E+00
  -0.26700000E+01           0.00000000E+00
  -0.26600000E+01           0.00000000E+00
  -0.26500000E+01           0.00000000E+00
  -0.26400000E+01           0.00000000E+00
  -0.26300000E+01           0.00000000E+00
  -0.26200000E+01           0.00000000E+00
  -0.26100000E+01           0.00000000E+00
  -0.26000000E+01           0.00000000E+00
  -0.25900000E+01           0.00000000E+00
  -0.25800000E+01           0.00000000E+00
  -0.25700000E+01           0.00000000E+00
  -0.25600000E+01           0.00000000E+00
  -0.25500000E+01           0.00000000E+00
  -0.25400000E+01           0.00000000E+00
  -0.25300000E+01           0.00000000E+00
  -0.25200000E+01           0.00000000E+00
  -0.25100000E+01           0.00000000E+00
  -0.25000000E+01           0.00000000E+00
  -0.24900000E+01           0.00000000E+00
  -0.24800000E+01           0.00000000E+00
  -0.24700000E+01           0.00000000E+00
  -0.24600000E+01           0.00000000E+00
  -0.24500000E+01           0.00000000E+00
  -0.24400000E+01           0.00000000E+00
  -0.24300000E+01           0.00000000E+00
  -0.24200000E+01           0.00000000E+00
  -0.24100000E+01           0.00000000E+00
  -0.24000000E+01           0.00000000E+00
  -0.23900000E+01           0.00000000E+00
  -0.23800000E+01           0.00000000E+00
  -0.23700000E+01           0.00000000E+00
  -0.23600000E+01           0.00000000E+00
  -0.23500000E+01           0.00000000E+00
  -0.23400000E+01           0.00000000E+00
  -0.23300000E+01           0.00000000E+00
  -0.23200000E+01           0.00000000E+00
  -0.23100000E+01           0.00000000E+00
  -0.23000000E+01           0.00000000E+00
  -0.22900000E+01           0.00000000E+00
  -0.22800000E+01           0.00000000E+00
  -0.22700000E+01           0.00000000E+00
  -0.22600000E+01           0.00000000E+00
  -0.22500000E+01           0.00000000E+00
  -0.22400000E+01           0.00000000E+00
  -0.22300000E+01           0.00000000E+00
  -0.22200000E+01           0.00000000E+00
  -0.22100000E+01           0.00000000E+00
  -0.22000000E+01           0.00000000E+00
  -0.21900000E+01           0.00000000E+00
  -0.21800000E+01           0.00000000E+00
  -0.21700000E+01           0.00000000E+00
  -0.21600000E+01           0.00000000E+00
  -0.21500000E+01           0.00000000E+00
  -0.21400000E+01           0.00000000E+00
  -0.21300000E+01           0.00000000E+00
  -0.21200000E+01           0.00000000E+00
  -0.21100000E+01           0.00000000E+00
  -0.21000000E+01           0.00000000E+00
  -0.20900000E+01           0.00000000E+00
  -0.20800000E+01           0.00000000E+00
  -0.20700000E+01           0.00000000E+00
  -0.20600000E+01           0.00000000E+00
  -0.20500000E+01           0.00000000E+00
  -0.20400000E+01           0.00000000E+00
  -0.20300000E+01           0.00000000E+00
  -0.20200000E+01           0.00000000E+00
  -0.20100000E+01           0.00000000E+00
  -0.20000000E+01           0.00000000E+00
  -0.19900000E+01           0.00000000E+00
  -0.19800000E+01           0.00000000E+00
  -0.19700000E+01           0.00000000E+00
  -0.19600000E+01           0.00000000E+00
  -0.19500000E+01           0.00000000E+00
  -0.19400000E+01           0.00000000E+00
  -0.19300000E+01           0.00000000E+00
  -0.19200000E+01           0.00000000E+00
  -0.19100000E+01           0.00000000E+00
  -0.19000000E+01           0.00000000E+00
  -0.18900000E+01           0.00000000E+00
  -0.18800000E+01           0.00000000E+00
  -0.18700000E+01           0.00000000E+00
  -0.18600000E+01           0.00000000E+00
  -0.18500000E+01           0.00000000E+00
  -0.18400000E+01           0.00000000E+00
  -0.18300000E+01           0.00000000E+00
  -0.18200000E+01           0.00000000E+00
  -0.18100000E+01           0.00000000E+00
  -0.18000000E+01           0.00000000E+00
  -0.17900000E+01           0.00000000E+00
  -0.17800000E+01           0.00000000E+00
  -0.17700000E+01           0.00000000E+00
  -0.17600000E+01           0.00000000E+00
  -0.17500000E+01           0.00000000E+00
  -0.17400000E+01           0.00000000E+00
  -0.17300000E+01           0.00000000E+00
  -0.17200000E+01           0.00000000E+00
  -0.17100000E+01           0.00000000E+00
  -0.17000000E+01           0.00000000E+00
  -0.16900000E+01           0.00000000E+00
  -0.16800000E+01           0.00000000E+00
  -0.16700000E+01           0.00000000E+00
  -0.16600000E+01           0.00000000E+00
  -0.16500000E+01           0.00000000E+00
  -0.16400000E+01           0.00000000E+00
  -0.16300000E+01           0.00000000E+00
  -0.16200000E+01           0.00000000E+00
  -0.16100000E+01           0.00000000E+00
  -0.16000000E+01           0.00000000E+00
  -0.15900000E+01           0.00000000E+00
  -0.15800000E+01           0.00000000E+00
  -0.15700000E+01           0.00000000E+00
  -0.15600000E+01           0.00000000E+00
  -0.15500000E+01           0.00000000E+00
  -0.15400000E+01           0.00000000E+00
  -0.15300000E+01           0.00000000E+00
  -0.15200000E+01           0.00000000E+00
  -0.15100000E+01           0.00000000E+00
  -0.15000000E+01           0.00000000E+00
  -0.14900000E+01           0.00000000E+00
  -0.14800000E+01           0.00000000E+00
  -0.14700000E+01           0.00000000E+00
  -0.14600000E+01           0.00000000E+00
  -0.14500000E+01           0.00000000E+00
  -0.14400000E+01           0.00000000E+00
  -0.14300000E+01           0.00000000E+00
  -0.14200000E+01           0.00000000E+00
  -0.14100000E+01           0.00000000E+00
  -0.14000000E+01           0.00000000E+00
  -0.13900000E+01           0.00000000E+00
  -0.13800000E+01           0.00000000E+00
  -0.13700000E+01           0.00000000E+00
  -0.13600000E+01           0.00000000E+00
  -0.13500000E+01           0.00000000E+00
  -0.13400000E+01           0.00000000E+00
  -0.13300000E+01           0.00000000E+00
  -0.13200000E+01           0.00000000E+00
  -0.13100000E+01           0.00000000E+00
  -0.13000000E+01           0.00000000E+00
  -0.12900000E+01           0.00000000E+00
  -0.12800000E+01           0.00000000E+00
  -0.12700000E+01           0.00000000E+00
  -0.12600000E+01           0.00000000E+00
  -0.12500000E+01           0.00000000E+00
  -0.12400000E+01           0.00000000E+00
  -0.12300000E+01           0.00000000E+00
  -0.12200000E+01           0.00000000E+00
  -0.12100000E+01           0.00000000E+00
  -0.12000000E+01           0.00000000E+00
  -0.11900000E+01           0.00000000E+00
  -0.11800000E+01           0.00000000E+00
  -0.11700000E+01           0.00000000E+00
  -0.11600000E+01           0.00000000E+00
  -0.11500000E+01           0.00000000E+00
  -0.11400000E+01           0.00000000E+00
  -0.11300000E+01           0.00000000E+00
  -0.11200000E+01           0.00000000E+00
  -0.11100000E+01           0.00000000E+00
  -0.11000000E+01           0.00000000E+00
  -0.10900000E+01           0.00000000E+00
  -0.10800000E+01           0.00000000E+00
  -0.10700000E+01           0.00000000E+00
  -0.10600000E+01           0.00000000E+00
  -0.10500000E+01           0.00000000E+00
  -0.10400000E+01           0.00000000E+00
  -0.10300000E+01           0.00000000E+00
  -0.10200000E+01           0.00000000E+00
  -0.10100000E+01           0.00000000E+00
  -0.10000000E+01           0.00000000E+00
  -0.99000000E+00           0.00000000E+00
  -0.98000000E+00           0.00000000E+00
  -0.97000000E+00           0.00000000E+00
  -0.96000000E+00           0.00000000E+00
  -0.95000000E+00           0.00000000E+00
  -0.94000000E+00           0.00000000E+00
  -0.93000000E+00           0.00000000E+00
  -0.92000000E+00           0.00000000E+00
  -0.91000000E+00           0.00000000E+00
  -0.90000000E+00           0.00000000E+00
  -0.89000000E+00           0.00000000E+00
  -0.88000000E+00           0.00000000E+00
  -0.87000000E+00           0.00000000E+00
  -0.86000000E+00           0.00000000E+00
  -0.85000000E+00           0.00000000E+00
  -0.84000000E+00           0.00000000E+00
  -0.83000000E+00           0.00000000E+00
  -0.82000000E+00           0.00000000E+00
  -0.81000000E+00           0.00000000E+00
  -0.80000000E+00           0.00000000E+00
  -0.79000000E+00           0.00000000E+00
  -0.78000000E+00           0.00000000E+00
  -0.77000000E+00           0.00000000E+00
  -0.76000000E+00           0.00000000E+00
  -0.75000000E+00           0.00000000E+00
  -0.74000000E+00           0.00000000E+00
  -0.73000000E+00           0.00000000E+00
  -0.72000000E+00           0.00000000E+00
  -0.71000000E+00           0.00000000E+00
  -0.70000000E+00           0.00000000E+00
  -0.69000000E+00           0.00000000E+00
  -0.68000000E+00           0.00000000E+00
  -0.67000000E+00           0.00000000E+00
  -0.66000000E+00           0.00000000E+00
  -0.65000000E+00           0.00000000E+00
  -0.64000000E+00           0.00000000E+00
  -0.63000000E+00           0.00000000E+00
  -0.62000000E+00           0.00000000E+00
  -0.61000000E+00           0.00000000E+00
  -0.60000000E+00           0.00000000E+00
  -0.59000000E+00           0.00000000E+00
  -0.58000000E+00           0.00000000E+00
  -0.57000000E+00           0.00000000E+00
  -0.56000000E+00           0.00000000E+00
  -0.55000000E+00           0.00000000E+00
  -0.54000000E+00           0.00000000E+00
  -0.53000000E+00           0.00000000E+00
  -0.52000000E+00           0.00000000E+00
  -0.51000000E+00           0.00000000E+00
  -0.50000000E+00           0.00000000E+00
  -0.49000000E+00           0.00000000E+00
  -0.48000000E+00           0.00000000E+00
  -0.47000000E+00           0.00000000E+00
  -0.46000000E+00           0.00000000E+00
  -0.45000000E+00           0.00000000E+00
  -0.44000000E+00           0.00000000E+00
  -0.43000000E+00           0.00000000E+00
  -0.42000000E+00           0.00000000E+00
  -0.41000000E+00           0.00000000E+00
  -0.40000000E+00           0.00000000E+00
  -0.39000000E+00           0.00000000E+00
  -0.38000000E+00           0.00000000E+00
  -0.37000000E+00           0.00000000E+00
  -0.36000000E+00           0.00000000E+00
  -0.35000000E+00           0.00000000E+00
  -0.34000000E+00           0.00000000E+00
  -0.33000000E+00           0.00000000E+00
  -0.32000000E+00           0.00000000E+00
  -0.31000000E+00           0.00000000E+00
  -0.30000000E+00           0.00000000E+00
  -0.29000000E+00           0.00000000E+00
  -0.28000000E+00           0.00000000E+00
  -0.27000000E+00           0.00000000E+00
  -0.26000000E+00           0.00000000E+00
  -0.25000000E+00           0.00000000E+00
  -0.24000000E+00           0.00000000E+00
  -0.23000000E+00           0.00000000E+00
  -0.22000000E+00           0.00000000E+00
  -0.21000000E+00           0.00000000E+00
  -0.20000000E+00           0.00000000E+00
  -0.19000000E+00           0.00000000E+00
  -0.18000000E+00           0.00000000E+00
  -0.17000000E+00           0.00000000E+00
  -0.16000000E+00           0.00000000E+00
  -0.15000000E+00           0.00000000E+00
  -0.14000000E+00           0.00000000E+00
  -0.13000000E+00           0.00000000E+00
  -0.12000000E+00           0.00000000E+00
  -0.11000000E+00           0.00000000E+00
  -0.10000000E+00           0.00000000E+00
  -0.90000000E-01           0.00000000E+00
  -0.80000000E-01           0.00000000E+00
  -0.70000000E-01           0.00000000E+00
  -0.60000000E-01           0.00000000E+00
  -0.50000000E-01           0.00000000E+00
  -0.40000000E-01           0.00000000E+00
  -0.30000000E-01           0.00000000E+00
  -0.20000000E-01           0.00000000E+00
  -0.10000000E-01           0.00000000E+00
   0.00000000E+00           0.98090278E-03
   0.10000000E-01           0.28419271E-01
   0.20000000E-01           0.10873698E+00
   0.30000000E-01           0.22760417E+00
   0.40000000E-01           0.38479253E+00
   0.50000000E-01           0.57576389E+00
   0.60000000E-01           0.77514410E+00
   0.70000000E-01           0.10058681E+01
   0.80000000E-01           0.12327326E+01
   0.90000000E-01           0.14737083E+01
   0.10000000E+00           0.17062422E+01
   0.11000000E+00           0.19363906E+01
   0.12000000E+00           0.21390087E+01
   0.13000000E+00           0.23413377E+01
   0.14000000E+00           0.25328125E+01
   0.15000000E+00           0.27072526E+01
   0.16000000E+00           0.28396233E+01
   0.17000000E+00           0.29573941E+01
   0.18000000E+00           0.30670408E+01
   0.19000000E+00           0.31452005E+01
   0.20000000E+00           0.32090269E+01
   0.21000000E+00           0.32336927E+01
   0.22000000E+00           0.32520295E+01
   0.23000000E+00           0.32360252E+01
   0.24000000E+00           0.32143177E+01
   0.25000000E+00           0.31888655E+01
   0.26000000E+00           0.31349010E+01
   0.27000000E+00           0.30502352E+01
   0.28000000E+00           0.29597101E+01
   0.29000000E+00           0.28586155E+01
   0.30000000E+00           0.27573090E+01
   0.31000000E+00           0.26471424E+01
   0.32000000E+00           0.25163125E+01
   0.33000000E+00           0.23990104E+01
   0.34000000E+00           0.22724158E+01
   0.35000000E+00           0.21390859E+01
   0.36000000E+00           0.20068160E+01
   0.37000000E+00           0.18815078E+01
   0.38000000E+00           0.17519557E+01
   0.39000000E+00           0.16285373E+01
   0.40000000E+00           0.15149679E+01
   0.41000000E+00           0.14042569E+01
   0.42000000E+00           0.12920738E+01
   0.43000000E+00           0.11875868E+01
   0.44000000E+00           0.10727135E+01
   0.45000000E+00           0.98133594E+00
   0.46000000E+00           0.89577517E+00
   0.47000000E+00           0.80792188E+00
   0.48000000E+00           0.73930729E+00
   0.49000000E+00           0.66192795E+00
   0.50000000E+00           0.59472917E+00
   0.51000000E+00           0.52758247E+00
   0.52000000E+00           0.46939931E+00
   0.53000000E+00           0.42274392E+00
   0.54000000E+00           0.37702517E+00
   0.55000000E+00           0.33087500E+00
   0.56000000E+00           0.28904601E+00
   0.57000000E+00           0.25671962E+00
   0.58000000E+00           0.22426389E+00
   0.59000000E+00           0.19946701E+00
   0.60000000E+00           0.17345920E+00
   0.61000000E+00           0.14958594E+00
   0.62000000E+00           0.13333681E+00
   0.63000000E+00           0.11462500E+00
   0.64000000E+00           0.96704861E-01
   0.65000000E+00           0.84992187E-01
   0.66000000E+00           0.72197049E-01
   0.67000000E+00           0.63468750E-01
   0.68000000E+00           0.52609375E-01
   0.69000000E+00           0.46033854E-01
   0.70000000E+00           0.38856771E-01
   0.71000000E+00           0.32596354E-01
   0.72000000E+00           0.27751736E-01
   0.73000000E+00           0.23115451E-01
   0.74000000E+00           0.20336806E-01
   0.75000000E+00           0.16414063E-01
   0.76000000E+00           0.13605035E-01
   0.77000000E+00           0.11567708E-01
   0.78000000E+00           0.99331597E-02
   0.79000000E+00           0.78932292E-02
   0.80000000E+00           0.65651042E-02
   0.81000000E+00           0.57430556E-02
   0.82000000E+00           0.47204861E-02
   0.83000000E+00           0.39201389E-02
   0.84000000E+00           0.32352431E-02
   0.85000000E+00           0.25842014E-02
   0.86000000E+00           0.18498264E-02
   0.87000000E+00           0.17031250E-02
   0.88000000E+00           0.14157986E-02
   0.89000000E+00           0.12326389E-02
   0.90000000E+00           0.96614583E-03
   0.91000000E+00           0.81250000E-03
   0.92000000E+00           0.70138889E-03
   0.93000000E+00           0.47743056E-03
   0.94000000E+00           0.31510417E-03
   0.95000000E+00           0.27690972E-03
   0.96000000E+00           0.23697917E-03
   0.97000000E+00           0.21093750E-03
   0.98000000E+00           0.15798611E-03
   0.99000000E+00           0.10850694E-03
   0.10000000E+01           0.92881944E-04
   0.10100000E+01           0.65972222E-04
   0.10200000E+01           0.52951389E-04
   0.10300000E+01           0.36458333E-04
   0.10400000E+01           0.24305556E-04
   0.10500000E+01           0.21701389E-04
   0.10600000E+01           0.22569444E-04
   0.10700000E+01           0.26041667E-04
   0.10800000E+01           0.13888889E-04
   0.10900000E+01           0.86805556E-05
   0.11000000E+01           0.26041667E-04
   0.11100000E+01           0.00000000E+00
   0.11200000E+01           0.00000000E+00
   0.11300000E+01           0.00000000E+00
   0.11400000E+01           0.00000000E+00
   0.11500000E+01           0.00000000E+00
   0.11600000E+01           0.26041667E-05
   0.11700000E+01           0.00000000E+00
   0.11800000E+01           0.00000000E+00
   0.11900000E+01           0.00000000E+00
   0.12000000E+01           0.43402778E-05
   0.12100000E+01           0.00000000E+00
   0.12200000E+01           0.00000000E+00
   0.12300000E+01           0.00000000E+00
   0.12400000E+01           0.00000000E+00
   0.12500000E+01           0.00000000E+00
   0.12600000E+01           0.00000000E+00
   0.12700000E+01           0.00000000E+00
   0.12800000E+01           0.00000000E+00
   0.12900000E+01           0.00000000E+00
   0.13000000E+01           0.00000000E+00
   0.13100000E+01           0.00000000E+00
   0.13200000E+01           0.00000000E+00
   0.13300000E+01           0.00000000E+00
   0.13400000E+01           0.00000000E+00
   0.13500000E+01           0.00000000E+00
   0.13600000E+01           0.00000000E+00
   0.13700000E+01           0.00000000E+00
   0.13800000E+01           0.00000000E+00
   0.13900000E+01           0.00000000E+00
   0.14000000E+01           0.00000000E+00
   0.14100000E+01           0.00000000E+00
   0.14200000E+01           0.00000000E+00
   0.14300000E+01           0.00000000E+00
   0.14400000E+01           0.00000000E+00
   0.14500000E+01           0.00000000E+00
   0.14600000E+01           0.00000000E+00
   0.14700000E+01           0.00000000E+00
   0.14800000E+01           0.00000000E+00
   0.14900000E+01           0.00000000E+00
   0.15000000E+01           0.00000000E+00
   0.15100000E+01           0.00000000E+00
   0.15200000E+01           0.00000000E+00
   0.15300000E+01           0.00000000E+00
   0.15400000E+01           0.00000000E+00
   0.15500000E+01           0.00000000E+00
   0.15600000E+01           0.00000000E+00
   0.15700000E+01           0.00000000E+00
   0.15800000E+01           0.00000000E+00
   0.15900000E+01           0.00000000E+00
   0.16000000E+01           0.00000000E+00
   0.16100000E+01           0.00000000E+00
   0.16200000E+01           0.00000000E+00
   0.16300000E+01           0.00000000E+00
   0.16400000E+01           0.00000000E+00
   0.16500000E+01           0.00000000E+00
   0.16600000E+01           0.00000000E+00
   0.16700000E+01           0.00000000E+00
   0.16800000E+01           0.00000000E+00
   0.16900000E+01           0.00000000E+00
   0.17000000E+01           0.00000000E+00
   0.17100000E+01           0.00000000E+00
   0.17200000E+01           0.00000000E+00
   0.17300000E+01           0.00000000E+00
   0.17400000E+01           0.00000000E+00
   0.17500000E+01           0.00000000E+00
   0.17600000E+01           0.00000000E+00
   0.17700000E+01           0.00000000E+00
   0.17800000E+01           0.00000000E+00
   0.17900000E+01           0.00000000E+00
   0.18000000E+01           0.00000000E+00
   0.18100000E+01           0.00000000E+00
   0.18200000E+01           0.00000000E+00
   0.18300000E+01           0.00000000E+00
   0.18400000E+01           0.00000000E+00
   0.18500000E+01           0.00000000E+00
   0.18600000E+01           0.00000000E+00
   0.18700000E+01           0.00000000E+00
   0.18800000E+01           0.00000000E+00
   0.18900000E+01           0.00000000E+00
   0.19000000E+01           0.00000000E+00
   0.19100000E+01           0.00000000E+00
   0.19200000E+01           0.00000000E+00
   0.19300000E+01           0.00000000E+00
   0.19400000E+01           0.00000000E+00
   0.19500000E+01           0.00000000E+00
   0.19600000E+01           0.00000000E+00
   0.19700000E+01           0.00000000E+00
   0.19800000E+01           0.00000000E+00
   0.19900000E+01           0.00000000E+00
   0.20000000E+01           0.00000000E+00
   0.20100000E+01           0.00000000E+00
   0.20200000E+01           0.00000000E+00
   0.20300000E+01           0.00000000E+00
   0.20400000E+01           0.00000000E+00
   0.20500000E+01           0.00000000E+00
   0.20600000E+01           0.00000000E+00
   0.20700000E+01           0.00000000E+00
   0.20800000E+01           0.00000000E+00
   0.20900000E+01           0.00000000E+00
   0.21000000E+01           0.00000000E+00
   0.21100000E+01           0.00000000E+00
   0.21200000E+01           0.00000000E+00
   0.21300000E+01           0.00000000E+00
   0.21400000E+01           0.00000000E+00
   0.21500000E+01           0.00000000E+00
   0.21600000E+01           0.00000000E+00
   0.21700000E+01           0.00000000E+00
   0.21800000E+01           0.00000000E+00
   0.21900000E+01           0.00000000E+00
   0.22000000E+01           0.00000000E+00
   0.22100000E+01           0.00000000E+00
   0.22200000E+01           0.00000000E+00
   0.22300000E+01           0.00000000E+00
   0.22400000E+01           0.00000000E+00
   0.22500000E+01           0.00000000E+00
   0.22600000E+01           0.00000000E+00
   0.22700000E+01           0.00000000E+00
   0.22800000E+01           0.00000000E+00
   0.22900000E+01           0.00000000E+00
   0.23000000E+01           0.00000000E+00
   0.23100000E+01           0.00000000E+00
   0.23200000E+01           0.00000000E+00
   0.23300000E+01           0.00000000E+00
   0.23400000E+01           0.00000000E+00
   0.23500000E+01           0.00000000E+00
   0.23600000E+01           0.00000000E+00
   0.23700000E+01           0.00000000E+00
   0.23800000E+01           0.00000000E+00
   0.23900000E+01           0.00000000E+00
   0.24000000E+01           0.00000000E+00
   0.24100000E+01           0.00000000E+00
   0.24200000E+01           0.00000000E+00
   0.24300000E+01           0.00000000E+00
   0.24400000E+01           0.00000000E+00
   0.24500000E+01           0.00000000E+00
   0.24600000E+01           0.00000000E+00
   0.24700000E+01           0.00000000E+00
   0.24800000E+01           0.00000000E+00
   0.24900000E+01           0.00000000E+00
   0.25000000E+01           0.00000000E+00
   0.25100000E+01           0.00000000E+00
   0.25200000E+01           0.00000000E+00
   0.25300000E+01           0.00000000E+00
   0.25400000E+01           0.00000000E+00
   0.25500000E+01           0.00000000E+00
   0.25600000E+01           0.00000000E+00
   0.25700000E+01           0.00000000E+00
   0.25800000E+01           0.00000000E+00
   0.25900000E+01           0.00000000E+00
   0.26000000E+01           0.00000000E+00
   0.26100000E+01           0.00000000E+00
   0.26200000E+01           0.00000000E+00
   0.26300000E+01           0.00000000E+00
   0.26400000E+01           0.00000000E+00
   0.26500000E+01           0.00000000E+00
   0.26600000E+01           0.00000000E+00
   0.26700000E+01           0.00000000E+00
   0.26800000E+01           0.00000000E+00
   0.26900000E+01           0.00000000E+00
   0.27000000E+01           0.00000000E+00
   0.27100000E+01           0.00000000E+00
   0.27200000E+01           0.00000000E+00
   0.27300000E+01           0.00000000E+00
   0.27400000E+01           0.00000000E+00
   0.27500000E+01           0.00000000E+00
   0.27600000E+01           0.00000000E+00
   0.27700000E+01           0.00000000E+00
   0.27800000E+01           0.00000000E+00
   0.27900000E+01           0.00000000E+00
   0.28000000E+01           0.00000000E+00
   0.28100000E+01           0.00000000E+00
   0.28200000E+01           0.00000000E+00
   0.28300000E+01           0.00000000E+00
   0.28400000E+01           0.00000000E+00
   0.28500000E+01           0.00000000E+00
   0.28600000E+01           0.00000000E+00
   0.28700000E+01           0.00000000E+00
   0.28800000E+01           0.00000000E+00
   0.28900000E+01           0.00000000E+00
   0.29000000E+01           0.00000000E+00
   0.29100000E+01           0.00000000E+00
   0.29200000E+01           0.00000000E+00
   0.29300000E+01           0.00000000E+00
   0.29400000E+01           0.00000000E+00
   0.29500000E+01           0.00000000E+00
   0.29600000E+01           0.00000000E+00
   0.29700000E+01           0.00000000E+00
   0.29800000E+01           0.00000000E+00
   0.29900000E+01           0.00000000E+00
   0.30000000E+01           0.00000000E+00
   0.30100000E+01           0.00000000E+00
   0.30200000E+01           0.00000000E+00
   0.30300000E+01           0.00000000E+00
   0.30400000E+01           0.00000000E+00
   0.30500000E+01           0.00000000E+00
   0.30600000E+01           0.00000000E+00
   0.30700000E+01           0.00000000E+00
   0.30800000E+01           0.00000000E+00
   0.30900000E+01           0.00000000E+00
   0.31000000E+01           0.00000000E+00
   0.31100000E+01           0.00000000E+00
   0.31200000E+01           0.00000000E+00
   0.31300000E+01           0.00000000E+00
   0.31400000E+01           0.00000000E+00
   0.31500000E+01           0.00000000E+00
   0.31600000E+01           0.00000000E+00
   0.31700000E+01           0.00000000E+00
   0.31800000E+01           0.00000000E+00
   0.31900000E+01           0.00000000E+00
   0.32000000E+01           0.00000000E+00
   0.32100000E+01           0.00000000E+00
   0.32200000E+01           0.00000000E+00
   0.32300000E+01           0.00000000E+00
   0.32400000E+01           0.00000000E+00
   0.32500000E+01           0.00000000E+00
   0.32600000E+01           0.00000000E+00
   0.32700000E+01           0.00000000E+00
   0.32800000E+01           0.00000000E+00
   0.32900000E+01           0.00000000E+00
   0.33000000E+01           0.00000000E+00
   0.33100000E+01           0.00000000E+00
   0.33200000E+01           0.00000000E+00
   0.33300000E+01           0.00000000E+00
   0.33400000E+01           0.00000000E+00
   0.33500000E+01           0.00000000E+00
   0.33600000E+01           0.00000000E+00
   0.33700000E+01           0.00000000E+00
   0.33800000E+01           0.00000000E+00
   0.33900000E+01           0.00000000E+00
   0.34000000E+01           0.00000000E+00
   0.34100000E+01           0.00000000E+00
   0.34200000E+01           0.00000000E+00
   0.34300000E+01           0.00000000E+00
   0.34400000E+01           0.00000000E+00
   0.34500000E+01           0.00000000E+00
   0.34600000E+01           0.00000000E+00
   0.34700000E+01           0.00000000E+00
   0.34800000E+01           0.00000000E+00
   0.34900000E+01           0.00000000E+00
   0.35000000E+01           0.00000000E+00
   0.35100000E+01           0.00000000E+00
   0.35200000E+01           0.00000000E+00
   0.35300000E+01           0.00000000E+00
   0.35400000E+01           0.00000000E+00
   0.35500000E+01           0.00000000E+00
   0.35600000E+01           0.00000000E+00
   0.35700000E+01           0.00000000E+00
   0.35800000E+01           0.00000000E+00
   0.35900000E+01           0.00000000E+00
   0.36000000E+01           0.00000000E+00
   0.36100000E+01           0.00000000E+00
   0.36200000E+01           0.00000000E+00
   0.36300000E+01           0.00000000E+00
   0.36400000E+01           0.00000000E+00
   0.36500000E+01           0.00000000E+00
   0.36600000E+01           0.00000000E+00
   0.36700000E+01           0.00000000E+00
   0.36800000E+01           0.00000000E+00
   0.36900000E+01           0.00000000E+00
   0.37000000E+01           0.00000000E+00
   0.37100000E+01           0.00000000E+00
   0.37200000E+01           0.00000000E+00
   0.37300000E+01           0.00000000E+00
   0.37400000E+01           0.00000000E+00
   0.37500000E+01           0.00000000E+00
   0.37600000E+01           0.00000000E+00
   0.37700000E+01           0.00000000E+00
   0.37800000E+01           0.00000000E+00
   0.37900000E+01           0.00000000E+00
   0.38000000E+01           0.00000000E+00
   0.38100000E+01           0.00000000E+00
   0.38200000E+01           0.00000000E+00
   0.38300000E+01           0.00000000E+00
   0.38400000E+01           0.00000000E+00
   0.38500000E+01           0.00000000E+00
   0.38600000E+01           0.00000000E+00
   0.38700000E+01           0.00000000E+00
   0.38800000E+01           0.00000000E+00
   0.38900000E+01           0.00000000E+00
   0.39000000E+01           0.00000000E+00
   0.39100000E+01           0.00000000E+00
   0.39200000E+01           0.00000000E+00
   0.39300000E+01           0.00000000E+00
   0.39400000E+01           0.00000000E+00
   0.39500000E+01           0.00000000E+00
   0.39600000E+01           0.00000000E+00
   0.39700000E+01           0.00000000E+00
   0.39800000E+01           0.00000000E+00
   0.39900000E+01           0.00000000E+00
   0.40000000E+01           0.00000000E+00
 #T=     5.0476
  -0.40000000E+01           0.00000000E+00
  -0.39900000E+01           0.00000000E+00
  -0.39800000E+01           0.00000000E+00
  -0.39700000E+01           0.00000000E+00
  -0.39600000E+01           0.00000000E+00
  -0.39500000E+01           0.00000000E+00
  -0.39400000E+01           0.00000000E+00
  -0.39300000E+01           0.00000000E+00
  -0.39200000E+01           0.00000000E+00
  -0.39100000E+01           0.00000000E+00
  -0.39000000E+01           0.00000000E+00
  -0.38900000E+01           0.00000000E+00
  -0.38800000E+01           0.00000000E+00
  -0.38700000E+01           0.00000000E+00
  -0.38600000E+01           0.00000000E+00
  -0.38500000E+01           0.00000000E+00
  -0.38400000E+01           0.00000000E+00
  -0.38300000E+01           0.00000000E+00
  -0.38200000E+01           0.00000000E+00
  -0.38100000E+01           0.00000000E+00
  -0.38000000E+01           0.00000000E+00
  -0.37900000E+01           0.00000000E+00
  -0.37800000E+01           0.00000000E+00
  -0.37700000E+01           0.00000000E+00
  -0.37600000E+01           0.00000000E+00
  -0.37500000E+01           0.00000000E+00
  -0.37400000E+01           0.00000000E+00
  -0.37300000E+01           0.00000000E+00
  -0.37200000E+01           0.00000000E+00
  -0.37100000E+01           0.00000000E+00
  -0.37000000E+01           0.00000000E+00
  -0.36900000E+01           0.00000000E+00
  -0.36800000E+01           0.00000000E+00
  -0.36700000E+01           0.00000000E+00
  -0.36600000E+01           0.00000000E+00
  -0.36500000E+01           0.00000000E+00
  -0.36400000E+01           0.00000000E+00
  -0.36300000E+01           0.00000000E+00
  -0.36200000E+01           0.00000000E+00
  -0.36100000E+01           0.00000000E+00
  -0.36000000E+01           0.00000000E+00
  -0.35900000E+01           0.00000000E+00
  -0.35800000E+01           0.00000000E+00
  -0.35700000E+01           0.00000000E+00
  -0.35600000E+01           0.00000000E+00
  -0.35500000E+01           0.00000000E+00
  -0.35400000E+01           0.00000000E+00
  -0.35300000E+01           0.00000000E+00
  -0.35200000E+01           0.00000000E+00
  -0.35100000E+01           0.00000000E+00
  -0.35000000E+01           0.00000000E+00
  -0.34900000E+01           0.00000000E+00
  -0.34800000E+01           0.00000000E+00
  -0.34700000E+01           0.00000000E+00
  -0.34600000E+01           0.00000000E+00
  -0.34500000E+01           0.00000000E+00
  -0.34400000E+01           0.00000000E+00
  -0.34300000E+01           0.00000000E+00
  -0.34200000E+01           0.00000000E+00
  -0.34100000E+01           0.00000000E+00
  -0.34000000E+01           0.00000000E+00
  -0.33900000E+01           0.00000000E+00
  -0.33800000E+01           0.00000000E+00
  -0.33700000E+01           0.00000000E+00
  -0.33600000E+01           0.00000000E+00
  -0.33500000E+01           0.00000000E+00
  -0.33400000E+01           0.00000000E+00
  -0.33300000E+01           0.00000000E+00
  -0.33200000E+01           0.00000000E+00
  -0.33100000E+01           0.00000000E+00
  -0.33000000E+01           0.00000000E+00
  -0.32900000E+01           0.00000000E+00
  -0.32800000E+01           0.00000000E+00
  -0.32700000E+01           0.00000000E+00
  -0.32600000E+01           0.00000000E+00
  -0.32500000E+01           0.00000000E+00
  -0.32400000E+01           0.00000000E+00
  -0.32300000E+01           0.00000000E+00
  -0.32200000E+01           0.00000000E+00
  -0.32100000E+01           0.00000000E+00
  -0.32000000E+01           0.00000000E+00
  -0.31900000E+01           0.00000000E+00
  -0.31800000E+01           0.00000000E+00
  -0.31700000E+01           0.00000000E+00
  -0.31600000E+01           0.00000000E+00
  -0.31500000E+01           0.00000000E+00
  -0.31400000E+01           0.00000000E+00
  -0.31300000E+01           0.00000000E+00
  -0.31200000E+01           0.00000000E+00
  -0.31100000E+01           0.00000000E+00
  -0.31000000E+01           0.00000000E+00
  -0.30900000E+01           0.00000000E+00
  -0.30800000E+01           0.00000000E+00
  -0.30700000E+01           0.00000000E+00
  -0.30600000E+01           0.00000000E+00
  -0.30500000E+01           0.00000000E+00
  -0.30400000E+01           0.00000000E+00
  -0.30300000E+01           0.00000000E+00
  -0.30200000E+01           0.00000000E+00
  -0.30100000E+01           0.00000000E+00
  -0.30000000E+01           0.00000000E+00
  -0.29900000E+01           0.00000000E+00
  -0.29800000E+01           0.00000000E+00
  -0.29700000E+01           0.00000000E+00
  -0.29600000E+01           0.00000000E+00
  -0.29500000E+01           0.00000000E+00
  -0.29400000E+01           0.00000000E+00
  -0.29300000E+01           0.00000000E+00
  -0.29200000E+01           0.00000000E+00
  -0.29100000E+01           0.00000000E+00
  -0.29000000E+01           0.00000000E+00
  -0.28900000E+01           0.00000000E+00
  -0.28800000E+01           0.00000000E+00
  -0.28700000E+01           0.00000000E+00
  -0.28600000E+01           0.00000000E+00
  -0.28500000E+01           0.00000000E+00
  -0.28400000E+01           0.00000000E+00
  -0.28300000E+01           0.00000000E+00
  -0.28200000E+01           0.00000000E+00
  -0.28100000E+01           0.00000000E+00
  -0.28000000E+01           0.00000000E+00
  -0.27900000E+01           0.00000000E+00
  -0.27800000E+01           0.00000000E+00
  -0.27700000E+01           0.00000000E+00
  -0.27600000E+01           0.00000000E+00
  -0.27500000E+01           0.00000000E+00
  -0.27400000E+01           0.00000000E+00
  -0.27300000E+01           0.00000000E+00
  -0.27200000E+01           0.00000000E+00
  -0.27100000E+01           0.00000000E+00
  -0.27000000E+01           0.00000000E+00
  -0.26900000E+01           0.00000000E+00
  -0.26800000E+01           0.00000000E+00
  -0.26700000E+01           0.00000000E+00
  -0.26600000E+01           0.00000000E+00
  -0.26500000E+01           0.00000000E+00
  -0.26400000E+01           0.00000000E+00
  -0.26300000E+01           0.00000000E+00
  -0.26200000E+01           0.00000000E+00
  -0.26100000E+01           0.00000000E+00
  -0.26000000E+01           0.00000000E+00
  -0.25900000E+01           0.00000000E+00
  -0.25800000E+01           0.00000000E+00
  -0.25700000E+01           0.00000000E+00
  -0.25600000E+01           0.00000000E+00
  -0.25500000E+01           0.00000000E+00
  -0.25400000E+01           0.00000000E+00
  -0.25300000E+01           0.00000000E+00
  -0.25200000E+01           0.00000000E+00
  -0.25100000E+01           0.00000000E+00
  -0.25000000E+01           0.00000000E+00
  -0.24900000E+01           0.00000000E+00
  -0.24800000E+01           0.00000000E+00
  -0.24700000E+01           0.00000000E+00
  -0.24600000E+01           0.00000000E+00
  -0.24500000E+01           0.00000000E+00
  -0.24400000E+01           0.00000000E+00
  -0.24300000E+01           0.00000000E+00
  -0.24200000E+01           0.00000000E+00
  -0.24100000E+01           0.00000000E+00
  -0.24000000E+01           0.00000000E+00
  -0.23900000E+01           0.00000000E+00
  -0.23800000E+01           0.00000000E+00
  -0.23700000E+01           0.00000000E+00
  -0.23600000E+01           0.00000000E+00
  -0.23500000E+01           0.00000000E+00
  -0.23400000E+01           0.00000000E+00
  -0.23300000E+01           0.00000000E+00
  -0.23200000E+01           0.00000000E+00
  -0.23100000E+01           0.00000000E+00
  -0.23000000E+01           0.00000000E+00
  -0.22900000E+01           0.00000000E+00
  -0.22800000E+01           0.00000000E+00
  -0.22700000E+01           0.00000000E+00
  -0.22600000E+01           0.00000000E+00
  -0.22500000E+01           0.00000000E+00
  -0.22400000E+01           0.00000000E+00
  -0.22300000E+01           0.00000000E+00
  -0.22200000E+01           0.00000000E+00
  -0.22100000E+01           0.00000000E+00
  -0.22000000E+01           0.00000000E+00
  -0.21900000E+01           0.00000000E+00
  -0.21800000E+01           0.00000000E+00
  -0.21700000E+01           0.00000000E+00
  -0.21600000E+01           0.00000000E+00
  -0.21500000E+01           0.00000000E+00
  -0.21400000E+01           0.00000000E+00
  -0.21300000E+01           0.00000000E+00
  -0.21200000E+01           0.00000000E+00
  -0.21100000E+01           0.00000000E+00
  -0.21000000E+01           0.00000000E+00
  -0.20900000E+01           0.00000000E+00
  -0.20800000E+01           0.00000000E+00
  -0.20700000E+01           0.00000000E+00
  -0.20600000E+01           0.00000000E+00
  -0.20500000E+01           0.00000000E+00
  -0.20400000E+01           0.00000000E+00
  -0.20300000E+01           0.00000000E+00
  -0.20200000E+01           0.00000000E+00
  -0.20100000E+01           0.00000000E+00
  -0.20000000E+01           0.00000000E+00
  -0.19900000E+01           0.00000000E+00
  -0.19800000E+01           0.00000000E+00
  -0.19700000E+01           0.00000000E+00
  -0.19600000E+01           0.00000000E+00
  -0.19500000E+01           0.00000000E+00
  -0.19400000E+01           0.00000000E+00
  -0.19300000E+01           0.00000000E+00
  -0.19200000E+01           0.00000000E+00
  -0.19100000E+01           0.00000000E+00
  -0.19000000E+01           0.00000000E+00
  -0.18900000E+01           0.00000000E+00
  -0.18800000E+01           0.00000000E+00
  -0.18700000E+01           0.00000000E+00
  -0.18600000E+01           0.00000000E+00
  -0.18500000E+01           0.00000000E+00
  -0.18400000E+01           0.00000000E+00
  -0.18300000E+01           0.00000000E+00
  -0.18200000E+01           0.00000000E+00
  -0.18100000E+01           0.00000000E+00
  -0.18000000E+01           0.00000000E+00
  -0.17900000E+01           0.00000000E+00
  -0.17800000E+01           0.00000000E+00
  -0.17700000E+01           0.00000000E+00
  -0.17600000E+01           0.00000000E+00
  -0.17500000E+01           0.00000000E+00
  -0.17400000E+01           0.00000000E+00
  -0.17300000E+01           0.00000000E+00
  -0.17200000E+01           0.00000000E+00
  -0.17100000E+01           0.00000000E+00
  -0.17000000E+01           0.00000000E+00
  -0.16900000E+01           0.00000000E+00
  -0.16800000E+01           0.00000000E+00
  -0.16700000E+01           0.00000000E+00
  -0.16600000E+01           0.00000000E+00
  -0.16500000E+01           0.00000000E+00
  -0.16400000E+01           0.00000000E+00
  -0.16300000E+01           0.00000000E+00
  -0.16200000E+01           0.00000000E+00
  -0.16100000E+01           0.00000000E+00
  -0.16000000E+01           0.00000000E+00
  -0.15900000E+01           0.00000000E+00
  -0.15800000E+01           0.00000000E+00
  -0.15700000E+01           0.00000000E+00
  -0.15600000E+01           0.00000000E+00
  -0.15500000E+01           0.00000000E+00
  -0.15400000E+01           0.00000000E+00
  -0.15300000E+01           0.00000000E+00
  -0.15200000E+01           0.00000000E+00
  -0.15100000E+01           0.00000000E+00
  -0.15000000E+01           0.00000000E+00
  -0.14900000E+01           0.00000000E+00
  -0.14800000E+01           0.00000000E+00
  -0.14700000E+01           0.00000000E+00
  -0.14600000E+01           0.00000000E+00
  -0.14500000E+01           0.00000000E+00
  -0.14400000E+01           0.00000000E+00
  -0.14300000E+01           0.00000000E+00
  -0.14200000E+01           0.00000000E+00
  -0.14100000E+01           0.00000000E+00
  -0.14000000E+01           0.00000000E+00
  -0.13900000E+01           0.00000000E+00
  -0.13800000E+01           0.00000000E+00
  -0.13700000E+01           0.00000000E+00
  -0.13600000E+01           0.00000000E+00
  -0.13500000E+01           0.00000000E+00
  -0.13400000E+01           0.00000000E+00
  -0.13300000E+01           0.00000000E+00
  -0.13200000E+01           0.00000000E+00
  -0.13100000E+01           0.00000000E+00
  -0.13000000E+01           0.00000000E+00
  -0.12900000E+01           0.00000000E+00
  -0.12800000E+01           0.00000000E+00
  -0.12700000E+01           0.00000000E+00
  -0.12600000E+01           0.00000000E+00
  -0.12500000E+01           0.00000000E+00
  -0.12400000E+01           0.00000000E+00
  -0.12300000E+01           0.00000000E+00
  -0.12200000E+01           0.00000000E+00
  -0.12100000E+01           0.00000000E+00
  -0.12000000E+01           0.00000000E+00
  -0.11900000E+01           0.00000000E+00
  -0.11800000E+01           0.00000000E+00
  -0.11700000E+01           0.00000000E+00
  -0.11600000E+01           0.00000000E+00
  -0.11500000E+01           0.00000000E+00
  -0.11400000E+01           0.00000000E+00
  -0.11300000E+01           0.00000000E+00
  -0.11200000E+01           0.00000000E+00
  -0.11100000E+01           0.00000000E+00
  -0.11000000E+01           0.00000000E+00
  -0.10900000E+01           0.00000000E+00
  -0.10800000E+01           0.00000000E+00
  -0.10700000E+01           0.00000000E+00
  -0.10600000E+01           0.00000000E+00
  -0.10500000E+01           0.00000000E+00
  -0.10400000E+01           0.00000000E+00
  -0.10300000E+01           0.00000000E+00
  -0.10200000E+01           0.00000000E+00
  -0.10100000E+01           0.00000000E+00
  -0.10000000E+01           0.00000000E+00
  -0.99000000E+00           0.00000000E+00
  -0.98000000E+00           0.00000000E+00
  -0.97000000E+00           0.00000000E+00
  -0.96000000E+00           0.00000000E+00
  -0.95000000E+00           0.00000000E+00
  -0.94000000E+00           0.00000000E+00
  -0.93000000E+00           0.00000000E+00
  -0.92000000E+00           0.00000000E+00
  -0.91000000E+00           0.00000000E+00
  -0.90000000E+00           0.00000000E+00
  -0.89000000E+00           0.00000000E+00
  -0.88000000E+00           0.00000000E+00
  -0.87000000E+00           0.00000000E+00
  -0.86000000E+00           0.00000000E+00
  -0.85000000E+00           0.00000000E+00
  -0.84000000E+00           0.00000000E+00
  -0.83000000E+00           0.00000000E+00
  -0.82000000E+00           0.00000000E+00
  -0.81000000E+00           0.00000000E+00
  -0.80000000E+00           0.00000000E+00
  -0.79000000E+00           0.00000000E+00
  -0.78000000E+00           0.00000000E+00
  -0.77000000E+00           0.00000000E+00
  -0.76000000E+00           0.00000000E+00
  -0.75000000E+00           0.00000000E+00
  -0.74000000E+00           0.00000000E+00
  -0.73000000E+00           0.00000000E+00
  -0.72000000E+00           0.00000000E+00
  -0.71000000E+00           0.00000000E+00
  -0.70000000E+00           0.00000000E+00
  -0.69000000E+00           0.00000000E+00
  -0.68000000E+00           0.00000000E+00
  -0.67000000E+00           0.00000000E+00
  -0.66000000E+00           0.00000000E+00
  -0.65000000E+00           0.00000000E+00
  -0.64000000E+00           0.00000000E+00
  -0.63000000E+00           0.00000000E+00
  -0.62000000E+00           0.00000000E+00
  -0.61000000E+00           0.00000000E+00
  -0.60000000E+00           0.00000000E+00
  -0.59000000E+00           0.00000000E+00
  -0.58000000E+00           0.00000000E+00
  -0.57000000E+00           0.00000000E+00
  -0.56000000E+00           0.00000000E+00
  -0.55000000E+00           0.00000000E+00
  -0.54000000E+00           0.00000000E+00
  -0.53000000E+00           0.00000000E+00
  -0.52000000E+00           0.00000000E+00
  -0.51000000E+00           0.00000000E+00
  -0.50000000E+00           0.00000000E+00
  -0.49000000E+00           0.00000000E+00
  -0.48000000E+00           0.00000000E+00
  -0.47000000E+00           0.00000000E+00
  -0.46000000E+00           0.00000000E+00
  -0.45000000E+00           0.00000000E+00
  -0.44000000E+00           0.00000000E+00
  -0.43000000E+00           0.00000000E+00
  -0.42000000E+00           0.00000000E+00
  -0.41000000E+00           0.00000000E+00
  -0.40000000E+00           0.00000000E+00
  -0.39000000E+00           0.00000000E+00
  -0.38000000E+00           0.00000000E+00
  -0.37000000E+00           0.00000000E+00
  -0.36000000E+00           0.00000000E+00
  -0.35000000E+00           0.00000000E+00
  -0.34000000E+00           0.00000000E+00
  -0.33000000E+00           0.00000000E+00
  -0.32000000E+00           0.00000000E+00
  -0.31000000E+00           0.00000000E+00
  -0.30000000E+00           0.00000000E+00
  -0.29000000E+00           0.00000000E+00
  -0.28000000E+00           0.00000000E+00
  -0.27000000E+00           0.00000000E+00
  -0.26000000E+00           0.00000000E+00
  -0.25000000E+00           0.00000000E+00
  -0.24000000E+00           0.00000000E+00
  -0.23000000E+00           0.00000000E+00
  -0.22000000E+00           0.00000000E+00
  -0.21000000E+00           0.00000000E+00
  -0.20000000E+00           0.00000000E+00
  -0.19000000E+00           0.00000000E+00
  -0.18000000E+00           0.00000000E+00
  -0.17000000E+00           0.00000000E+00
  -0.16000000E+00           0.00000000E+00
  -0.15000000E+00           0.00000000E+00
  -0.14000000E+00           0.00000000E+00
  -0.13000000E+00           0.00000000E+00
  -0.12000000E+00           0.00000000E+00
  -0.11000000E+00           0.00000000E+00
  -0.10000000E+00           0.00000000E+00
  -0.90000000E-01           0.00000000E+00
  -0.80000000E-01           0.00000000E+00
  -0.70000000E-01           0.00000000E+00
  -0.60000000E-01           0.00000000E+00
  -0.50000000E-01           0.00000000E+00
  -0.40000000E-01           0.00000000E+00
  -0.30000000E-01           0.00000000E+00
  -0.20000000E-01           0.00000000E+00
  -0.10000000E-01           0.00000000E+00
   0.00000000E+00           0.90972222E-03
   0.10000000E-01           0.27565972E-01
   0.20000000E-01           0.99098958E-01
   0.30000000E-01           0.20505295E+00
   0.40000000E-01           0.34102691E+00
   0.50000000E-01           0.50130990E+00
   0.60000000E-01           0.66286979E+00
   0.70000000E-01           0.86226736E+00
   0.80000000E-01           0.10454193E+01
   0.90000000E-01           0.12369158E+01
   0.10000000E+00           0.14237161E+01
   0.11000000E+00           0.16012951E+01
   0.12000000E+00           0.17846337E+01
   0.13000000E+00           0.19435486E+01
   0.14000000E+00           0.20988247E+01
   0.15000000E+00           0.22397188E+01
   0.16000000E+00           0.23615512E+01
   0.17000000E+00           0.24720538E+01
   0.18000000E+00           0.25662769E+01
   0.19000000E+00           0.26621988E+01
   0.20000000E+00           0.27271632E+01
   0.21000000E+00           0.27702014E+01
   0.22000000E+00           0.28083889E+01
   0.23000000E+00           0.28147257E+01
   0.24000000E+00           0.28282908E+01
   0.25000000E+00           0.28328316E+01
   0.26000000E+00           0.28074687E+01
   0.27000000E+00           0.27733351E+01
   0.28000000E+00           0.27410920E+01
   0.29000000E+00           0.26892630E+01
   0.30000000E+00           0.26428663E+01
   0.31000000E+00           0.25643064E+01
   0.32000000E+00           0.24895200E+01
   0.33000000E+00           0.24107240E+01
   0.34000000E+00           0.23332083E+01
   0.35000000E+00           0.22396606E+01
   0.36000000E+00           0.21524592E+01
   0.37000000E+00           0.20521667E+01
   0.38000000E+00           0.19714540E+01
   0.39000000E+00           0.18782023E+01
   0.40000000E+00           0.17763229E+01
   0.41000000E+00           0.16835130E+01
   0.42000000E+00           0.15894497E+01
   0.43000000E+00           0.14935738E+01
   0.44000000E+00           0.13904731E+01
   0.45000000E+00           0.13173238E+01
   0.46000000E+00           0.12258793E+01
   0.47000000E+00           0.11453715E+01
   0.48000000E+00           0.10615816E+01
   0.49000000E+00           0.98211024E+00
   0.50000000E+00           0.90421441E+00
   0.51000000E+00           0.83821788E+00
   0.52000000E+00           0.77105816E+00
   0.53000000E+00           0.71072396E+00
   0.54000000E+00           0.65199913E+00
   0.55000000E+00           0.59293576E+00
   0.56000000E+00           0.54869097E+00
   0.57000000E+00           0.49415191E+00
   0.58000000E+00           0.45231424E+00
   0.59000000E+00           0.40553299E+00
   0.60000000E+00           0.36800174E+00
   0.61000000E+00           0.33250694E+00
   0.62000000E+00           0.29697483E+00
   0.63000000E+00           0.26902257E+00
   0.64000000E+00           0.23966840E+00
   0.65000000E+00           0.21770833E+00
   0.66000000E+00           0.19254167E+00
   0.67000000E+00           0.17220747E+00
   0.68000000E+00           0.15311892E+00
   0.69000000E+00           0.13535764E+00
   0.70000000E+00           0.11995399E+00
   0.71000000E+00           0.10464931E+00
   0.72000000E+00           0.92480903E-01
   0.73000000E+00           0.82432292E-01
   0.74000000E+00           0.70580729E-01
   0.75000000E+00           0.61881076E-01
   0.76000000E+00           0.54864583E-01
   0.77000000E+00           0.48415799E-01
   0.78000000E+00           0.39554688E-01
   0.79000000E+00           0.34949653E-01
   0.80000000E+00           0.30114583E-01
   0.81000000E+00           0.26991319E-01
   0.82000000E+00           0.23485243E-01
   0.83000000E+00           0.20387153E-01
   0.84000000E+00           0.17296875E-01
   0.85000000E+00           0.14676215E-01
   0.86000000E+00           0.12846354E-01
   0.87000000E+00           0.10559896E-01
   0.88000000E+00           0.96388889E-02
   0.89000000E+00           0.77916667E-02
   0.90000000E+00           0.62916667E-02
   0.91000000E+00           0.55295139E-02
   0.92000000E+00           0.46857639E-02
   0.93000000E+00           0.37690972E-02
   0.94000000E+00           0.34513889E-02
   0.95000000E+00           0.27517361E-02
   0.96000000E+00           0.22890625E-02
   0.97000000E+00           0.18046875E-02
   0.98000000E+00           0.17109375E-02
   0.99000000E+00           0.15824653E-02
   0.10000000E+01           0.11432292E-02
   0.10100000E+01           0.10260417E-02
   0.10200000E+01           0.69010417E-03
   0.10300000E+01           0.57204861E-03
   0.10400000E+01           0.46961806E-03
   0.10500000E+01           0.46527778E-03
   0.10600000E+01           0.37326389E-03
   0.10700000E+01           0.27343750E-03
   0.10800000E+01           0.24826389E-03
   0.10900000E+01           0.20399306E-03
   0.11000000E+01           0.17708333E-03
   0.11100000E+01           0.12239583E-03
   0.11200000E+01           0.16579861E-03
   0.11300000E+01           0.13281250E-03
   0.11400000E+01           0.99826389E-04
   0.11500000E+01           0.59895833E-04
   0.11600000E+01           0.52951389E-04
   0.11700000E+01           0.39930556E-04
   0.11800000E+01           0.30381944E-04
   0.11900000E+01           0.32986111E-04
   0.12000000E+01           0.20833333E-04
   0.12100000E+01           0.69444444E-05
   0.12200000E+01           0.11284722E-04
   0.12300000E+01           0.95486111E-05
   0.12400000E+01           0.43402778E-05
   0.12500000E+01           0.78125000E-05
   0.12600000E+01           0.00000000E+00
   0.12700000E+01           0.86805556E-05
   0.12800000E+01           0.34722222E-05
   0.12900000E+01           0.00000000E+00
   0.13000000E+01           0.00000000E+00
   0.13100000E+01           0.00000000E+00
   0.13200000E+01           0.00000000E+00
   0.13300000E+01           0.00000000E+00
   0.13400000E+01           0.86805556E-06
   0.13500000E+01           0.00000000E+00
   0.13600000E+01           0.00000000E+00
   0.13700000E+01           0.00000000E+00
   0.13800000E+01           0.00000000E+00
   0.13900000E+01           0.00000000E+00
   0.14000000E+01           0.00000000E+00
   0.14100000E+01           0.00000000E+00
   0.14200000E+01           0.00000000E+00
   0.14300000E+01           0.00000000E+00
   0.14400000E+01           0.00000000E+00
   0.14500000E+01           0.00000000E+00
   0.14600000E+01           0.00000000E+00
   0.14700000E+01           0.00000000E+00
   0.14800000E+01           0.00000000E+00
   0.14900000E+01           0.00000000E+00
   0.15000000E+01           0.00000000E+00
   0.15100000E+01           0.00000000E+00
   0.15200000E+01           0.00000000E+00
   0.15300000E+01           0.00000000E+00
   0.15400000E+01           0.00000000E+00
   0.15500000E+01           0.00000000E+00
   0.15600000E+01           0.00000000E+00
   0.15700000E+01           0.00000000E+00
   0.15800000E+01           0.00000000E+00
   0.15900000E+01           0.00000000E+00
   0.16000000E+01           0.00000000E+00
   0.16100000E+01           0.00000000E+00
   0.16200000E+01           0.00000000E+00
   0.16300000E+01           0.00000000E+00
   0.16400000E+01           0.00000000E+00
   0.16500000E+01           0.00000000E+00
   0.16600000E+01           0.00000000E+00
   0.16700000E+01           0.00000000E+00
   0.16800000E+01           0.00000000E+00
   0.16900000E+01           0.00000000E+00
   0.17000000E+01           0.00000000E+00
   0.17100000E+01           0.00000000E+00
   0.17200000E+01           0.00000000E+00
   0.17300000E+01           0.00000000E+00
   0.17400000E+01           0.00000000E+00
   0.17500000E+01           0.00000000E+00
   0.17600000E+01           0.00000000E+00
   0.17700000E+01           0.00000000E+00
   0.17800000E+01           0.00000000E+00
   0.17900000E+01           0.00000000E+00
   0.18000000E+01           0.00000000E+00
   0.18100000E+01           0.00000000E+00
   0.18200000E+01           0.00000000E+00
   0.18300000E+01           0.00000000E+00
   0.18400000E+01           0.00000000E+00
   0.18500000E+01           0.00000000E+00
   0.18600000E+01           0.00000000E+00
   0.18700000E+01           0.00000000E+00
   0.18800000E+01           0.00000000E+00
   0.18900000E+01           0.00000000E+00
   0.19000000E+01           0.00000000E+00
   0.19100000E+01           0.00000000E+00
   0.19200000E+01           0.00000000E+00
   0.19300000E+01           0.00000000E+00
   0.19400000E+01           0.00000000E+00
   0.19500000E+01           0.00000000E+00
   0.19600000E+01           0.00000000E+00
   0.19700000E+01           0.00000000E+00
   0.19800000E+01           0.00000000E+00
   0.19900000E+01           0.00000000E+00
   0.20000000E+01           0.00000000E+00
   0.20100000E+01           0.00000000E+00
   0.20200000E+01           0.00000000E+00
   0.20300000E+01           0.00000000E+00
   0.20400000E+01           0.00000000E+00
   0.20500000E+01           0.00000000E+00
   0.20600000E+01           0.00000000E+00
   0.20700000E+01           0.00000000E+00
   0.20800000E+01           0.00000000E+00
   0.20900000E+01           0.00000000E+00
   0.21000000E+01           0.00000000E+00
   0.21100000E+01           0.00000000E+00
   0.21200000E+01           0.00000000E+00
   0.21300000E+01           0.00000000E+00
   0.21400000E+01           0.00000000E+00
   0.21500000E+01           0.00000000E+00
   0.21600000E+01           0.00000000E+00
   0.21700000E+01           0.00000000E+00
   0.21800000E+01           0.00000000E+00
   0.21900000E+01           0.00000000E+00
   0.22000000E+01           0.00000000E+00
   0.22100000E+01           0.00000000E+00
   0.22200000E+01           0.00000000E+00
   0.22300000E+01           0.00000000E+00
   0.22400000E+01           0.00000000E+00
   0.22500000E+01           0.00000000E+00
   0.22600000E+01           0.00000000E+00
   0.22700000E+01           0.00000000E+00
   0.22800000E+01           0.00000000E+00
   0.22900000E+01           0.00000000E+00
   0.23000000E+01           0.00000000E+00
   0.23100000E+01           0.00000000E+00
   0.23200000E+01           0.00000000E+00
   0.23300000E+01           0.00000000E+00
   0.23400000E+01           0.00000000E+00
   0.23500000E+01           0.00000000E+00
   0.23600000E+01           0.00000000E+00
   0.23700000E+01           0.00000000E+00
   0.23800000E+01           0.00000000E+00
   0.23900000E+01           0.00000000E+00
   0.24000000E+01           0.00000000E+00
   0.24100000E+01           0.00000000E+00
   0.24200000E+01           0.00000000E+00
   0.24300000E+01           0.00000000E+00
   0.24400000E+01           0.00000000E+00
   0.24500000E+01           0.00000000E+00
   0.24600000E+01           0.00000000E+00
   0.24700000E+01           0.00000000E+00
   0.24800000E+01           0.00000000E+00
   0.24900000E+01           0.00000000E+00
   0.25000000E+01           0.00000000E+00
   0.25100000E+01           0.00000000E+00
   0.25200000E+01           0.00000000E+00
   0.25300000E+01           0.00000000E+00
   0.25400000E+01           0.00000000E+00
   0.25500000E+01           0.00000000E+00
   0.25600000E+01           0.00000000E+00
   0.25700000E+01           0.00000000E+00
   0.25800000E+01           0.00000000E+00
   0.25900000E+01           0.00000000E+00
   0.26000000E+01           0.00000000E+00
   0.26100000E+01           0.00000000E+00
   0.26200000E+01           0.00000000E+00
   0.26300000E+01           0.00000000E+00
   0.26400000E+01           0.00000000E+00
   0.26500000E+01           0.00000000E+00
   0.26600000E+01           0.00000000E+00
   0.26700000E+01           0.00000000E+00
   0.26800000E+01           0.00000000E+00
   0.26900000E+01           0.00000000E+00
   0.27000000E+01           0.00000000E+00
   0.27100000E+01           0.00000000E+00
   0.27200000E+01           0.00000000E+00
   0.27300000E+01           0.00000000E+00
   0.27400000E+01           0.00000000E+00
   0.27500000E+01           0.00000000E+00
   0.27600000E+01           0.00000000E+00
   0.27700000E+01           0.00000000E+00
   0.27800000E+01           0.00000000E+00
   0.27900000E+01           0.00000000E+00
   0.28000000E+01           0.00000000E+00
   0.28100000E+01           0.00000000E+00
   0.28200000E+01           0.00000000E+00
   0.28300000E+01           0.00000000E+00
   0.28400000E+01           0.00000000E+00
   0.28500000E+01           0.00000000E+00
   0.28600000E+01           0.00000000E+00
   0.28700000E+01           0.00000000E+00
   0.28800000E+01           0.00000000E+00
   0.28900000E+01           0.00000000E+00
   0.29000000E+01           0.00000000E+00
   0.29100000E+01           0.00000000E+00
   0.29200000E+01           0.00000000E+00
   0.29300000E+01           0.00000000E+00
   0.29400000E+01           0.00000000E+00
   0.29500000E+01           0.00000000E+00
   0.29600000E+01           0.00000000E+00
   0.29700000E+01           0.00000000E+00
   0.29800000E+01           0.00000000E+00
   0.29900000E+01           0.00000000E+00
   0.30000000E+01           0.00000000E+00
   0.30100000E+01           0.00000000E+00
   0.30200000E+01           0.00000000E+00
   0.30300000E+01           0.00000000E+00
   0.30400000E+01           0.00000000E+00
   0.30500000E+01           0.00000000E+00
   0.30600000E+01           0.00000000E+00
   0.30700000E+01           0.00000000E+00
   0.30800000E+01           0.00000000E+00
   0.30900000E+01           0.00000000E+00
   0.31000000E+01           0.00000000E+00
   0.31100000E+01           0.00000000E+00
   0.31200000E+01           0.00000000E+00
   0.31300000E+01           0.00000000E+00
   0.31400000E+01           0.00000000E+00
   0.31500000E+01           0.00000000E+00
   0.31600000E+01           0.00000000E+00
   0.31700000E+01           0.00000000E+00
   0.31800000E+01           0.00000000E+00
   0.31900000E+01           0.00000000E+00
   0.32000000E+01           0.00000000E+00
   0.32100000E+01           0.00000000E+00
   0.32200000E+01           0.00000000E+00
   0.32300000E+01           0.00000000E+00
   0.32400000E+01           0.00000000E+00
   0.32500000E+01           0.00000000E+00
   0.32600000E+01           0.00000000E+00
   0.32700000E+01           0.00000000E+00
   0.32800000E+01           0.00000000E+00
   0.32900000E+01           0.00000000E+00
   0.33000000E+01           0.00000000E+00
   0.33100000E+01           0.00000000E+00
   0.33200000E+01           0.00000000E+00
   0.33300000E+01           0.00000000E+00
   0.33400000E+01           0.00000000E+00
   0.33500000E+01           0.00000000E+00
   0.33600000E+01           0.00000000E+00
   0.33700000E+01           0.00000000E+00
   0.33800000E+01           0.00000000E+00
   0.33900000E+01           0.00000000E+00
   0.34000000E+01           0.00000000E+00
   0.34100000E+01           0.00000000E+00
   0.34200000E+01           0.00000000E+00
   0.34300000E+01           0.00000000E+00
   0.34400000E+01           0.00000000E+00
   0.34500000E+01           0.00000000E+00
   0.34600000E+01           0.00000000E+00
   0.34700000E+01           0.00000000E+00
   0.34800000E+01           0.00000000E+00
   0.34900000E+01           0.00000000E+00
   0.35000000E+01           0.00000000E+00
   0.35100000E+01           0.00000000E+00
   0.35200000E+01           0.00000000E+00
   0.35300000E+01           0.00000000E+00
   0.35400000E+01           0.00000000E+00
   0.35500000E+01           0.00000000E+00
   0.35600000E+01           0.00000000E+00
   0.35700000E+01           0.00000000E+00
   0.35800000E+01           0.00000000E+00
   0.35900000E+01           0.00000000E+00
   0.36000000E+01           0.00000000E+00
   0.36100000E+01           0.00000000E+00
   0.36200000E+01           0.00000000E+00
   0.36300000E+01           0.00000000E+00
   0.36400000E+01           0.00000000E+00
   0.36500000E+01           0.00000000E+00
   0.36600000E+01           0.00000000E+00
   0.36700000E+01           0.00000000E+00
   0.36800000E+01           0.00000000E+00
   0.36900000E+01           0.00000000E+00
   0.37000000E+01           0.00000000E+00
   0.37100000E+01           0.00000000E+00
   0.37200000E+01           0.00000000E+00
   0.37300000E+01           0.00000000E+00
   0.37400000E+01           0.00000000E+00
   0.37500000E+01           0.00000000E+00
   0.37600000E+01           0.00000000E+00
   0.37700000E+01           0.00000000E+00
   0.37800000E+01           0.00000000E+00
   0.37900000E+01           0.00000000E+00
   0.38000000E+01           0.00000000E+00
   0.38100000E+01           0.00000000E+00
   0.38200000E+01           0.00000000E+00
   0.38300000E+01           0.00000000E+00
   0.38400000E+01           0.00000000E+00
   0.38500000E+01           0.00000000E+00
   0.38600000E+01           0.00000000E+00
   0.38700000E+01           0.00000000E+00
   0.38800000E+01           0.00000000E+00
   0.38900000E+01           0.00000000E+00
   0.39000000E+01           0.00000000E+00
   0.39100000E+01           0.00000000E+00
   0.39200000E+01           0.00000000E+00
   0.39300000E+01           0.00000000E+00
   0.39400000E+01           0.00000000E+00
   0.39500000E+01           0.00000000E+00
   0.39600000E+01           0.00000000E+00
   0.39700000E+01           0.00000000E+00
   0.39800000E+01           0.00000000E+00
   0.39900000E+01           0.00000000E+00
   0.40000000E+01           0.00000000E+00
 #T=     6.0952
  -0.40000000E+01           0.00000000E+00
  -0.39900000E+01           0.00000000E+00
  -0.39800000E+01           0.00000000E+00
  -0.39700000E+01           0.00000000E+00
  -0.39600000E+01           0.00000000E+00
  -0.39500000E+01           0.00000000E+00
  -0.39400000E+01           0.00000000E+00
  -0.39300000E+01           0.00000000E+00
  -0.39200000E+01           0.00000000E+00
  -0.39100000E+01           0.00000000E+00
  -0.39000000E+01           0.00000000E+00
  -0.38900000E+01           0.00000000E+00
  -0.38800000E+01           0.00000000E+00
  -0.38700000E+01           0.00000000E+00
  -0.38600000E+01           0.00000000E+00
  -0.38500000E+01           0.00000000E+00
  -0.38400000E+01           0.00000000E+00
  -0.38300000E+01           0.00000000E+00
  -0.38200000E+01           0.00000000E+00
  -0.38100000E+01           0.00000000E+00
  -0.38000000E+01           0.00000000E+00
  -0.37900000E+01           0.00000000E+00
  -0.37800000E+01           0.00000000E+00
  -0.37700000E+01           0.00000000E+00
  -0.37600000E+01           0.00000000E+00
  -0.37500000E+01           0.00000000E+00
  -0.37400000E+01           0.00000000E+00
  -0.37300000E+01           0.00000000E+00
  -0.37200000E+01           0.00000000E+00
  -0.37100000E+01           0.00000000E+00
  -0.37000000E+01           0.00000000E+00
  -0.36900000E+01           0.00000000E+00
  -0.36800000E+01           0.00000000E+00
  -0.36700000E+01           0.00000000E+00
  -0.36600000E+01           0.00000000E+00
  -0.36500000E+01           0.00000000E+00
  -0.36400000E+01           0.00000000E+00
  -0.36300000E+01           0.00000000E+00
  -0.36200000E+01           0.00000000E+00
  -0.36100000E+01           0.00000000E+00
  -0.36000000E+01           0.00000000E+00
  -0.35900000E+01           0.00000000E+00
  -0.35800000E+01           0.00000000E+00
  -0.35700000E+01           0.00000000E+00
  -0.35600000E+01           0.00000000E+00
  -0.35500000E+01           0.00000000E+00
  -0.35400000E+01           0.00000000E+00
  -0.35300000E+01           0.00000000E+00
  -0.35200000E+01           0.00000000E+00
  -0.35100000E+01           0.00000000E+00
  -0.35000000E+01           0.00000000E+00
  -0.34900000E+01           0.00000000E+00
  -0.34800000E+01           0.00000000E+00
  -0.34700000E+01           0.00000000E+00
  -0.34600000E+01           0.00000000E+00
  -0.34500000E+01           0.00000000E+00
  -0.34400000E+01           0.00000000E+00
  -0.34300000E+01           0.00000000E+00
  -0.34200000E+01           0.00000000E+00
  -0.34100000E+01           0.00000000E+00
  -0.34000000E+01           0.00000000E+00
  -0.33900000E+01           0.00000000E+00
  -0.33800000E+01           0.00000000E+00
  -0.33700000E+01           0.00000000E+00
  -0.33600000E+01           0.00000000E+00
  -0.33500000E+01           0.00000000E+00
  -0.33400000E+01           0.00000000E+00
  -0.33300000E+01           0.00000000E+00
  -0.33200000E+01           0.00000000E+00
  -0.33100000E+01           0.00000000E+00
  -0.33000000E+01           0.00000000E+00
  -0.32900000E+01           0.00000000E+00
  -0.32800000E+01           0.00000000E+00
  -0.32700000E+01           0.00000000E+00
  -0.32600000E+01           0.00000000E+00
  -0.32500000E+01           0.00000000E+00
  -0.32400000E+01           0.00000000E+00
  -0.32300000E+01           0.00000000E+00
  -0.32200000E+01           0.00000000E+00
  -0.32100000E+01           0.00000000E+00
  -0.32000000E+01           0.00000000E+00
  -0.31900000E+01           0.00000000E+00
  -0.31800000E+01           0.00000000E+00
  -0.31700000E+01           0.00000000E+00
  -0.31600000E+01           0.00000000E+00
  -0.31500000E+01           0.00000000E+00
  -0.31400000E+01           0.00000000E+00
  -0.31300000E+01           0.00000000E+00
  -0.31200000E+01           0.00000000E+00
  -0.31100000E+01           0.00000000E+00
  -0.31000000E+01           0.00000000E+00
  -0.30900000E+01           0.00000000E+00
  -0.30800000E+01           0.00000000E+00
  -0.30700000E+01           0.00000000E+00
  -0.30600000E+01           0.00000000E+00
  -0.30500000E+01           0.00000000E+00
  -0.30400000E+01           0.00000000E+00
  -0.30300000E+01           0.00000000E+00
  -0.30200000E+01           0.00000000E+00
  -0.30100000E+01           0.00000000E+00
  -0.30000000E+01           0.00000000E+00
  -0.29900000E+01           0.00000000E+00
  -0.29800000E+01           0.00000000E+00
  -0.29700000E+01           0.00000000E+00
  -0.29600000E+01           0.00000000E+00
  -0.29500000E+01           0.00000000E+00
  -0.29400000E+01           0.00000000E+00
  -0.29300000E+01           0.00000000E+00
  -0.29200000E+01           0.00000000E+00
  -0.29100000E+01           0.00000000E+00
  -0.29000000E+01           0.00000000E+00
  -0.28900000E+01           0.00000000E+00
  -0.28800000E+01           0.00000000E+00
  -0.28700000E+01           0.00000000E+00
  -0.28600000E+01           0.00000000E+00
  -0.28500000E+01           0.00000000E+00
  -0.28400000E+01           0.00000000E+00
  -0.28300000E+01           0.00000000E+00
  -0.28200000E+01           0.00000000E+00
  -0.28100000E+01           0.00000000E+00
  -0.28000000E+01           0.00000000E+00
  -0.27900000E+01           0.00000000E+00
  -0.27800000E+01           0.00000000E+00
  -0.27700000E+01           0.00000000E+00
  -0.27600000E+01           0.00000000E+00
  -0.27500000E+01           0.00000000E+00
  -0.27400000E+01           0.00000000E+00
  -0.27300000E+01           0.00000000E+00
  -0.27200000E+01           0.00000000E+00
  -0.27100000E+01           0.00000000E+00
  -0.27000000E+01           0.00000000E+00
  -0.26900000E+01           0.00000000E+00
  -0.26800000E+01           0.00000000E+00
  -0.26700000E+01           0.00000000E+00
  -0.26600000E+01           0.00000000E+00
  -0.26500000E+01           0.00000000E+00
  -0.26400000E+01           0.00000000E+00
  -0.26300000E+01           0.00000000E+00
  -0.26200000E+01           0.00000000E+00
  -0.26100000E+01           0.00000000E+00
  -0.26000000E+01           0.00000000E+00
  -0.25900000E+01           0.00000000E+00
  -0.25800000E+01           0.00000000E+00
  -0.25700000E+01           0.00000000E+00
  -0.25600000E+01           0.00000000E+00
  -0.25500000E+01           0.00000000E+00
  -0.25400000E+01           0.00000000E+00
  -0.25300000E+01           0.00000000E+00
  -0.25200000E+01           0.00000000E+00
  -0.25100000E+01           0.00000000E+00
  -0.25000000E+01           0.00000000E+00
  -0.24900000E+01           0.00000000E+00
  -0.24800000E+01           0.00000000E+00
  -0.24700000E+01           0.00000000E+00
  -0.24600000E+01           0.00000000E+00
  -0.24500000E+01           0.00000000E+00
  -0.24400000E+01           0.00000000E+00
  -0.24300000E+01           0.00000000E+00
  -0.24200000E+01           0.00000000E+00
  -0.24100000E+01           0.00000000E+00
  -0.24000000E+01           0.00000000E+00
  -0.23900000E+01           0.00000000E+00
  -0.23800000E+01           0.00000000E+00
  -0.23700000E+01           0.00000000E+00
  -0.23600000E+01           0.00000000E+00
  -0.23500000E+01           0.00000000E+00
  -0.23400000E+01           0.00000000E+00
  -0.23300000E+01           0.00000000E+00
  -0.23200000E+01           0.00000000E+00
  -0.23100000E+01           0.00000000E+00
  -0.23000000E+01           0.00000000E+00
  -0.22900000E+01           0.00000000E+00
  -0.22800000E+01           0.00000000E+00
  -0.22700000E+01           0.00000000E+00
  -0.22600000E+01           0.00000000E+00
  -0.22500000E+01           0.00000000E+00
  -0.22400000E+01           0.00000000E+00
  -0.22300000E+01           0.00000000E+00
  -0.22200000E+01           0.00000000E+00
  -0.22100000E+01           0.00000000E+00
  -0.22000000E+01           0.00000000E+00
  -0.21900000E+01           0.00000000E+00
  -0.21800000E+01           0.00000000E+00
  -0.21700000E+01           0.00000000E+00
  -0.21600000E+01           0.00000000E+00
  -0.21500000E+01           0.00000000E+00
  -0.21400000E+01           0.00000000E+00
  -0.21300000E+01           0.00000000E+00
  -0.21200000E+01           0.00000000E+00
  -0.21100000E+01           0.00000000E+00
  -0.21000000E+01           0.00000000E+00
  -0.20900000E+01           0.00000000E+00
  -0.20800000E+01           0.00000000E+00
  -0.20700000E+01           0.00000000E+00
  -0.20600000E+01           0.00000000E+00
  -0.20500000E+01           0.00000000E+00
  -0.20400000E+01           0.00000000E+00
  -0.20300000E+01           0.00000000E+00
  -0.20200000E+01           0.00000000E+00
  -0.20100000E+01           0.00000000E+00
  -0.20000000E+01           0.00000000E+00
  -0.19900000E+01           0.00000000E+00
  -0.19800000E+01           0.00000000E+00
  -0.19700000E+01           0.00000000E+00
  -0.19600000E+01           0.00000000E+00
  -0.19500000E+01           0.00000000E+00
  -0.19400000E+01           0.00000000E+00
  -0.19300000E+01           0.00000000E+00
  -0.19200000E+01           0.00000000E+00
  -0.19100000E+01           0.00000000E+00
  -0.19000000E+01           0.00000000E+00
  -0.18900000E+01           0.00000000E+00
  -0.18800000E+01           0.00000000E+00
  -0.18700000E+01           0.00000000E+00
  -0.18600000E+01           0.00000000E+00
  -0.18500000E+01           0.00000000E+00
  -0.18400000E+01           0.00000000E+00
  -0.18300000E+01           0.00000000E+00
  -0.18200000E+01           0.00000000E+00
  -0.18100000E+01           0.00000000E+00
  -0.18000000E+01           0.00000000E+00
  -0.17900000E+01           0.00000000E+00
  -0.17800000E+01           0.00000000E+00
  -0.17700000E+01           0.00000000E+00
  -0.17600000E+01           0.00000000E+00
  -0.17500000E+01           0.00000000E+00
  -0.17400000E+01           0.00000000E+00
  -0.17300000E+01           0.00000000E+00
  -0.17200000E+01           0.00000000E+00
  -0.17100000E+01           0.00000000E+00
  -0.17000000E+01           0.00000000E+00
  -0.16900000E+01           0.00000000E+00
  -0.16800000E+01           0.00000000E+00
  -0.16700000E+01           0.00000000E+00
  -0.16600000E+01           0.00000000E+00
  -0.16500000E+01           0.00000000E+00
  -0.16400000E+01           0.00000000E+00
  -0.16300000E+01           0.00000000E+00
  -0.16200000E+01           0.00000000E+00
  -0.16100000E+01           0.00000000E+00
  -0.16000000E+01           0.00000000E+00
  -0.15900000E+01           0.00000000E+00
  -0.15800000E+01           0.00000000E+00
  -0.15700000E+01           0.00000000E+00
  -0.15600000E+01           0.00000000E+00
  -0.15500000E+01           0.00000000E+00
  -0.15400000E+01           0.00000000E+00
  -0.15300000E+01           0.00000000E+00
  -0.15200000E+01           0.00000000E+00
  -0.15100000E+01           0.00000000E+00
  -0.15000000E+01           0.00000000E+00
  -0.14900000E+01           0.00000000E+00
[...]
  -0.64000000E+00           0.00000000E+00
  -0.63000000E+00           0.00000000E+00
  -0.62000000E+00           0.00000000E+00
  -0.61000000E+00           0.00000000E+00
  -0.60000000E+00           0.00000000E+00
  -0.59000000E+00           0.00000000E+00
  -0.58000000E+00           0.00000000E+00
  -0.57000000E+00           0.00000000E+00
  -0.56000000E+00           0.00000000E+00
  -0.55000000E+00           0.00000000E+00
  -0.54000000E+00           0.00000000E+00
  -0.53000000E+00           0.00000000E+00
  -0.52000000E+00           0.00000000E+00
  -0.51000000E+00           0.00000000E+00
  -0.50000000E+00           0.00000000E+00
  -0.49000000E+00           0.00000000E+00
  -0.48000000E+00           0.00000000E+00
  -0.47000000E+00           0.00000000E+00
  -0.46000000E+00           0.00000000E+00
  -0.45000000E+00           0.00000000E+00
  -0.44000000E+00           0.00000000E+00
  -0.43000000E+00           0.00000000E+00
  -0.42000000E+00           0.00000000E+00
  -0.41000000E+00           0.00000000E+00
  -0.40000000E+00           0.00000000E+00
  -0.39000000E+00           0.00000000E+00
  -0.38000000E+00           0.00000000E+00
  -0.37000000E+00           0.00000000E+00
  -0.36000000E+00           0.00000000E+00
  -0.35000000E+00           0.00000000E+00
  -0.34000000E+00           0.00000000E+00
  -0.33000000E+00           0.00000000E+00
  -0.32000000E+00           0.00000000E+00
  -0.31000000E+00           0.00000000E+00
  -0.30000000E+00           0.00000000E+00
  -0.29000000E+00           0.00000000E+00
  -0.28000000E+00           0.00000000E+00
  -0.27000000E+00           0.00000000E+00
  -0.26000000E+00           0.00000000E+00
  -0.25000000E+00           0.00000000E+00
  -0.24000000E+00           0.00000000E+00
  -0.23000000E+00           0.00000000E+00
  -0.22000000E+00           0.00000000E+00
  -0.21000000E+00           0.00000000E+00
  -0.20000000E+00           0.00000000E+00
  -0.19000000E+00           0.00000000E+00
  -0.18000000E+00           0.00000000E+00
  -0.17000000E+00           0.00000000E+00
  -0.16000000E+00           0.00000000E+00
  -0.15000000E+00           0.00000000E+00
  -0.14000000E+00           0.00000000E+00
  -0.13000000E+00           0.00000000E+00
  -0.12000000E+00           0.00000000E+00
  -0.11000000E+00           0.00000000E+00
  -0.10000000E+00           0.00000000E+00
  -0.90000000E-01           0.00000000E+00
  -0.80000000E-01           0.00000000E+00
  -0.70000000E-01           0.00000000E+00
  -0.60000000E-01           0.00000000E+00
  -0.50000000E-01           0.00000000E+00
  -0.40000000E-01           0.00000000E+00
  -0.30000000E-01           0.00000000E+00
  -0.20000000E-01           0.00000000E+00
  -0.10000000E-01           0.00000000E+00
   0.00000000E+00           0.95486111E-05
   0.10000000E-01           0.29253472E-03
   0.20000000E-01           0.10668403E-02
   0.30000000E-01           0.22152778E-02
   0.40000000E-01           0.39505208E-02
   0.50000000E-01           0.59704861E-02
   0.60000000E-01           0.85156250E-02
   0.70000000E-01           0.11551215E-01
   0.80000000E-01           0.14940972E-01
   0.90000000E-01           0.18763889E-01
   0.10000000E+00           0.22692708E-01
   0.11000000E+00           0.27217882E-01
   0.12000000E+00           0.31913194E-01
   0.13000000E+00           0.37849826E-01
   0.14000000E+00           0.42909722E-01
   0.15000000E+00           0.48904514E-01
   0.16000000E+00           0.54968750E-01
   0.17000000E+00           0.62356771E-01
   0.18000000E+00           0.68692708E-01
   0.19000000E+00           0.75809028E-01
   0.20000000E+00           0.83354167E-01
   0.21000000E+00           0.91218750E-01
   0.22000000E+00           0.98652778E-01
   0.23000000E+00           0.10707813E+00
   0.24000000E+00           0.11520573E+00
   0.25000000E+00           0.12396528E+00
   0.26000000E+00           0.13282465E+00
   0.27000000E+00           0.14193490E+00
   0.28000000E+00           0.15117361E+00
   0.29000000E+00           0.15972830E+00
   0.30000000E+00           0.16975174E+00
   0.31000000E+00           0.17999306E+00
   0.32000000E+00           0.18924566E+00
   0.33000000E+00           0.19913021E+00
   0.34000000E+00           0.20826910E+00
   0.35000000E+00           0.21974826E+00
   0.36000000E+00           0.23071007E+00
   0.37000000E+00           0.23902604E+00
   0.38000000E+00           0.25138889E+00
   0.39000000E+00           0.26017708E+00
   0.40000000E+00           0.27118663E+00
   0.41000000E+00           0.28187587E+00
   0.42000000E+00           0.29241753E+00
   0.43000000E+00           0.30350781E+00
   0.44000000E+00           0.31295399E+00
   0.45000000E+00           0.32410503E+00
   0.46000000E+00           0.33368316E+00
   0.47000000E+00           0.34359983E+00
   0.48000000E+00           0.35568663E+00
   0.49000000E+00           0.36739149E+00
   0.50000000E+00           0.37560503E+00
   0.51000000E+00           0.38713542E+00
   0.52000000E+00           0.39644878E+00
   0.53000000E+00           0.40635156E+00
   0.54000000E+00           0.41739410E+00
   0.55000000E+00           0.42628472E+00
   0.56000000E+00           0.43757205E+00
   0.57000000E+00           0.44687674E+00
   0.58000000E+00           0.45660243E+00
   0.59000000E+00           0.46647396E+00
   0.60000000E+00           0.47671528E+00
   0.61000000E+00           0.48499740E+00
   0.62000000E+00           0.49582378E+00
   0.63000000E+00           0.50422917E+00
   0.64000000E+00           0.51293316E+00
   0.65000000E+00           0.52141927E+00
   0.66000000E+00           0.53115712E+00
   0.67000000E+00           0.53701389E+00
   0.68000000E+00           0.54698177E+00
   0.69000000E+00           0.55540104E+00
   0.70000000E+00           0.56396701E+00
   0.71000000E+00           0.57167188E+00
   0.72000000E+00           0.57827778E+00
   0.73000000E+00           0.58730382E+00
   0.74000000E+00           0.59340451E+00
   0.75000000E+00           0.60169705E+00
   0.76000000E+00           0.60898698E+00
   0.77000000E+00           0.61594878E+00
   0.78000000E+00           0.62106337E+00
   0.79000000E+00           0.62808420E+00
   0.80000000E+00           0.63374479E+00
   0.81000000E+00           0.64068750E+00
   0.82000000E+00           0.64534983E+00
   0.83000000E+00           0.64930122E+00
   0.84000000E+00           0.65718316E+00
   0.85000000E+00           0.66061372E+00
   0.86000000E+00           0.66599392E+00
   0.87000000E+00           0.67048090E+00
   0.88000000E+00           0.67515625E+00
   0.89000000E+00           0.67907205E+00
   0.90000000E+00           0.68351910E+00
   0.91000000E+00           0.68757899E+00
   0.92000000E+00           0.68911198E+00
   0.93000000E+00           0.69423351E+00
   0.94000000E+00           0.69740799E+00
   0.95000000E+00           0.69952691E+00
   0.96000000E+00           0.70026997E+00
   0.97000000E+00           0.70444010E+00
   0.98000000E+00           0.70758594E+00
   0.99000000E+00           0.70632986E+00
   0.10000000E+01           0.71020052E+00
   0.10100000E+01           0.71086458E+00
   0.10200000E+01           0.71317448E+00
   0.10300000E+01           0.71284722E+00
   0.10400000E+01           0.71508507E+00
   0.10500000E+01           0.71580382E+00
   0.10600000E+01           0.71574826E+00
   0.10700000E+01           0.71550260E+00
   0.10800000E+01           0.71605556E+00
   0.10900000E+01           0.71501823E+00
   0.11000000E+01           0.71599132E+00
   0.11100000E+01           0.71537500E+00
   0.11200000E+01           0.71481597E+00
   0.11300000E+01           0.71459896E+00
   0.11400000E+01           0.71154601E+00
   0.11500000E+01           0.71292795E+00
   0.11600000E+01           0.70916233E+00
   0.11700000E+01           0.70648872E+00
   0.11800000E+01           0.70745313E+00
   0.11900000E+01           0.70414410E+00
   0.12000000E+01           0.70099479E+00
   0.12100000E+01           0.69962587E+00
   0.12200000E+01           0.69621441E+00
   0.12300000E+01           0.69501302E+00
   0.12400000E+01           0.69042101E+00
   0.12500000E+01           0.68782205E+00
   0.12600000E+01           0.68442188E+00
   0.12700000E+01           0.68135069E+00
   0.12800000E+01           0.67676128E+00
   0.12900000E+01           0.67365365E+00
   0.13000000E+01           0.67064583E+00
   0.13100000E+01           0.66527517E+00
   0.13200000E+01           0.66267274E+00
   0.13300000E+01           0.65921788E+00
   0.13400000E+01           0.65292969E+00
   0.13500000E+01           0.64911458E+00
   0.13600000E+01           0.64527951E+00
   0.13700000E+01           0.64081684E+00
   0.13800000E+01           0.63407639E+00
   0.13900000E+01           0.62980295E+00
   0.14000000E+01           0.62508681E+00
   0.14100000E+01           0.62017535E+00
   0.14200000E+01           0.61430816E+00
   0.14300000E+01           0.61166927E+00
   0.14400000E+01           0.60464236E+00
   0.14500000E+01           0.59949219E+00
   0.14600000E+01           0.59443490E+00
   0.14700000E+01           0.58895226E+00
   0.14800000E+01           0.58339063E+00
   0.14900000E+01           0.57628993E+00
   0.15000000E+01           0.57012934E+00
   0.15100000E+01           0.56401302E+00
   0.15200000E+01           0.55974566E+00
   0.15300000E+01           0.55374219E+00
   0.15400000E+01           0.54608160E+00
   0.15500000E+01           0.54071094E+00
   0.15600000E+01           0.53488455E+00
   0.15700000E+01           0.52862934E+00
   0.15800000E+01           0.52269705E+00
   0.15900000E+01           0.51656597E+00
   0.16000000E+01           0.50810243E+00
   0.16100000E+01           0.50349132E+00
   0.16200000E+01           0.49757205E+00
   0.16300000E+01           0.49030990E+00
   0.16400000E+01           0.48472309E+00
   0.16500000E+01           0.47778819E+00
   0.16600000E+01           0.47085243E+00
   0.16700000E+01           0.46478038E+00
   0.16800000E+01           0.45809722E+00
   0.16900000E+01           0.45305382E+00
   0.17000000E+01           0.44475174E+00
   0.17100000E+01           0.43993837E+00
   0.17200000E+01           0.43241753E+00
   0.17300000E+01           0.42660417E+00
   0.17400000E+01           0.41961892E+00
   0.17500000E+01           0.41226910E+00
   0.17600000E+01           0.40596354E+00
   0.17700000E+01           0.40045399E+00
   0.17800000E+01           0.39319705E+00
   0.17900000E+01           0.38792448E+00
   0.18000000E+01           0.38045486E+00
   0.18100000E+01           0.37331684E+00
   0.18200000E+01           0.36737934E+00
   0.18300000E+01           0.36133941E+00
   0.18400000E+01           0.35508594E+00
   0.18500000E+01           0.34873958E+00
   0.18600000E+01           0.34302951E+00
   0.18700000E+01           0.33701389E+00
   0.18800000E+01           0.33001823E+00
   0.18900000E+01           0.32380208E+00
   0.19000000E+01           0.31771267E+00
   0.19100000E+01           0.31114063E+00
   0.19200000E+01           0.30546441E+00
   0.19300000E+01           0.29845486E+00
   0.19400000E+01           0.29273177E+00
   0.19500000E+01           0.28738194E+00
   0.19600000E+01           0.28169097E+00
   0.19700000E+01           0.27506771E+00
   0.19800000E+01           0.26951042E+00
   0.19900000E+01           0.26403819E+00
   0.20000000E+01           0.25799740E+00
   0.20100000E+01           0.25264323E+00
   0.20200000E+01           0.24744444E+00
   0.20300000E+01           0.24167708E+00
   0.20400000E+01           0.23644358E+00
   0.20500000E+01           0.23088976E+00
   0.20600000E+01           0.22544271E+00
   0.20700000E+01           0.22120833E+00
   0.20800000E+01           0.21557813E+00
   0.20900000E+01           0.21064323E+00
   0.21000000E+01           0.20571441E+00
   0.21100000E+01           0.20119097E+00
   0.21200000E+01           0.19591840E+00
   0.21300000E+01           0.19146528E+00
   0.21400000E+01           0.18691319E+00
   0.21500000E+01           0.18216840E+00
   0.21600000E+01           0.17798351E+00
   0.21700000E+01           0.17365625E+00
   0.21800000E+01           0.16953819E+00
   0.21900000E+01           0.16511024E+00
   0.22000000E+01           0.16091146E+00
   0.22100000E+01           0.15728299E+00
   0.22200000E+01           0.15248785E+00
   0.22300000E+01           0.14985417E+00
   0.22400000E+01           0.14513281E+00
   0.22500000E+01           0.14153646E+00
   0.22600000E+01           0.13773177E+00
   0.22700000E+01           0.13421875E+00
   0.22800000E+01           0.13081771E+00
   0.22900000E+01           0.12756771E+00
   0.23000000E+01           0.12426389E+00
   0.23100000E+01           0.12075174E+00
   0.23200000E+01           0.11704080E+00
   0.23300000E+01           0.11400781E+00
   0.23400000E+01           0.11130295E+00
   0.23500000E+01           0.10830035E+00
   0.23600000E+01           0.10449913E+00
   0.23700000E+01           0.10281250E+00
   0.23800000E+01           0.98871528E-01
   0.23900000E+01           0.96379340E-01
   0.24000000E+01           0.94148438E-01
   0.24100000E+01           0.90822917E-01
   0.24200000E+01           0.88315104E-01
   0.24300000E+01           0.86199653E-01
   0.24400000E+01           0.83223958E-01
   0.24500000E+01           0.81185764E-01
   0.24600000E+01           0.78757813E-01
   0.24700000E+01           0.76618924E-01
   0.24800000E+01           0.74154514E-01
   0.24900000E+01           0.72159722E-01
   0.25000000E+01           0.69651910E-01
   0.25100000E+01           0.67734375E-01
   0.25200000E+01           0.65637153E-01
   0.25300000E+01           0.63734375E-01
   0.25400000E+01           0.61361979E-01
   0.25500000E+01           0.59218750E-01
   0.25600000E+01           0.57790799E-01
   0.25700000E+01           0.55895833E-01
   0.25800000E+01           0.54510417E-01
   0.25900000E+01           0.52701389E-01
   0.26000000E+01           0.51357639E-01
   0.26100000E+01           0.49458333E-01
   0.26200000E+01           0.48013889E-01
   0.26300000E+01           0.46176215E-01
   0.26400000E+01           0.44393229E-01
   0.26500000E+01           0.43266493E-01
   0.26600000E+01           0.41852431E-01
   0.26700000E+01           0.40516493E-01
   0.26800000E+01           0.39008681E-01
   0.26900000E+01           0.37572917E-01
   0.27000000E+01           0.36405382E-01
   0.27100000E+01           0.35421875E-01
   0.27200000E+01           0.33965278E-01
   0.27300000E+01           0.33085069E-01
   0.27400000E+01           0.31777778E-01
   0.27500000E+01           0.30434028E-01
   0.27600000E+01           0.29443576E-01
   0.27700000E+01           0.28388889E-01
   0.27800000E+01           0.27381944E-01
   0.27900000E+01           0.26434896E-01
   0.28000000E+01           0.25276042E-01
   0.28100000E+01           0.24393229E-01
   0.28200000E+01           0.23734375E-01
   0.28300000E+01           0.22930556E-01
   0.28400000E+01           0.21959201E-01
   0.28500000E+01           0.21037326E-01
   0.28600000E+01           0.20296007E-01
   0.28700000E+01           0.19610243E-01
   0.28800000E+01           0.18649306E-01
   0.28900000E+01           0.18020833E-01
   0.29000000E+01           0.17478299E-01
   0.29100000E+01           0.16765625E-01
   0.29200000E+01           0.16121528E-01
   0.29300000E+01           0.15566840E-01
   0.29400000E+01           0.15022569E-01
   0.29500000E+01           0.14249132E-01
   0.29600000E+01           0.13522569E-01
   0.29700000E+01           0.13197917E-01
   0.29800000E+01           0.12671875E-01
   0.29900000E+01           0.12037326E-01
   0.30000000E+01           0.11596354E-01
   0.30100000E+01           0.11230035E-01
   0.30200000E+01           0.10599826E-01
   0.30300000E+01           0.10250000E-01
   0.30400000E+01           0.98281250E-02
   0.30500000E+01           0.95503472E-02
   0.30600000E+01           0.89748264E-02
   0.30700000E+01           0.85598958E-02
   0.30800000E+01           0.83480903E-02
   0.30900000E+01           0.77352431E-02
   0.31000000E+01           0.75703125E-02
   0.31100000E+01           0.71380208E-02
   0.31200000E+01           0.69227431E-02
   0.31300000E+01           0.66354167E-02
   0.31400000E+01           0.63237847E-02
   0.31500000E+01           0.59852431E-02
   0.31600000E+01           0.57526042E-02
   0.31700000E+01           0.55026042E-02
   0.31800000E+01           0.52786458E-02
   0.31900000E+01           0.49487847E-02
   0.32000000E+01           0.46875000E-02
   0.32100000E+01           0.44210069E-02
   0.32200000E+01           0.42968750E-02
   0.32300000E+01           0.40833333E-02
   0.32400000E+01           0.38446181E-02
   0.32500000E+01           0.37222222E-02
   0.32600000E+01           0.34835069E-02
   0.32700000E+01           0.33098958E-02
   0.32800000E+01           0.31293403E-02
   0.32900000E+01           0.30008681E-02
   0.33000000E+01           0.29045139E-02
   0.33100000E+01           0.27239583E-02
   0.33200000E+01           0.26067708E-02
   0.33300000E+01           0.23567708E-02
   0.33400000E+01           0.22699653E-02
   0.33500000E+01           0.21284722E-02
   0.33600000E+01           0.20217014E-02
   0.33700000E+01           0.20017361E-02
   0.33800000E+01           0.18246528E-02
   0.33900000E+01           0.17673611E-02
   0.34000000E+01           0.16553819E-02
   0.34100000E+01           0.15208333E-02
   0.34200000E+01           0.14001736E-02
   0.34300000E+01           0.13506944E-02
   0.34400000E+01           0.12864583E-02
   0.34500000E+01           0.12326389E-02
   0.34600000E+01           0.11545139E-02
   0.34700000E+01           0.99826389E-03
   0.34800000E+01           0.98524306E-03
   0.34900000E+01           0.93836806E-03
   0.35000000E+01           0.88454861E-03
   0.35100000E+01           0.85243056E-03
   0.35200000E+01           0.74565972E-03
   0.35300000E+01           0.70399306E-03
   0.35400000E+01           0.66666667E-03
   0.35500000E+01           0.61718750E-03
   0.35600000E+01           0.59809028E-03
   0.35700000E+01           0.53385417E-03
   0.35800000E+01           0.51736111E-03
   0.35900000E+01           0.44791667E-03
   0.36000000E+01           0.43402778E-03
   0.36100000E+01           0.38888889E-03
   0.36200000E+01           0.37500000E-03
   0.36300000E+01           0.31510417E-03
   0.36400000E+01           0.31597222E-03
   0.36500000E+01           0.28385417E-03
   0.36600000E+01           0.26041667E-03
   0.36700000E+01           0.26041667E-03
   0.36800000E+01           0.21267361E-03
   0.36900000E+01           0.22395833E-03
   0.37000000E+01           0.18315972E-03
   0.37100000E+01           0.17621528E-03
   0.37200000E+01           0.15798611E-03
   0.37300000E+01           0.15625000E-03
   0.37400000E+01           0.11197917E-03
   0.37500000E+01           0.10937500E-03
   0.37600000E+01           0.79861111E-04
   0.37700000E+01           0.99826389E-04
   0.37800000E+01           0.71180556E-04
   0.37900000E+01           0.75520833E-04
   0.38000000E+01           0.65972222E-04
   0.38100000E+01           0.44270833E-04
   0.38200000E+01           0.34722222E-04
   0.38300000E+01           0.42534722E-04
   0.38400000E+01           0.32118056E-04
   0.38500000E+01           0.30381944E-04
   0.38600000E+01           0.21701389E-04
   0.38700000E+01           0.20833333E-04
   0.38800000E+01           0.19965278E-04
   0.38900000E+01           0.12152778E-04
   0.39000000E+01           0.11284722E-04
   0.39100000E+01           0.60763889E-05
   0.39200000E+01           0.60763889E-05
   0.39300000E+01           0.34722222E-05
   0.39400000E+01           0.26041667E-05
   0.39500000E+01           0.17361111E-05
   0.39600000E+01           0.00000000E+00
   0.39700000E+01           0.17361111E-05
   0.39800000E+01           0.86805556E-06
   0.39900000E+01           0.86805556E-06
   0.40000000E+01           0.00000000E+00
