 #written on  7Aug2021 at 22:47:11 
 #------------------------------------------------- MONTECARLO -------------------------------------------------#
 # Temp      Magnetization     Energy_ave          C_M              Sus              U_E              U_M       #
 #--------------------------------------------------------------------------------------------------------------#
   4.0000   0.17849304E-02  -0.17178975E+03   0.98413148E+00   0.38151885E-03   0.66666636E+00   0.39911032E+00
   5.0476   0.19928573E-02  -0.17072903E+03   0.10115909E+01   0.39100459E-03   0.66666615E+00   0.38685555E+00
   6.0952   0.21594770E-02  -0.16966267E+03   0.10345463E+01   0.39257623E-03   0.66666589E+00   0.37826830E+00
   7.1429   0.23660105E-02  -0.16859426E+03   0.10327885E+01   0.38705420E-03   0.66666559E+00   0.38808927E+00
   8.1905   0.25528764E-02  -0.16753259E+03   0.10196444E+01   0.37968905E-03   0.66666526E+00   0.39981324E+00
   9.2381   0.26972181E-02  -0.16645162E+03   0.10104047E+01   0.37169784E-03   0.66666487E+00   0.40325180E+00
  10.2857   0.28658390E-02  -0.16537018E+03   0.10420801E+01   0.37177734E-03   0.66666433E+00   0.40787389E+00
  11.3333   0.30170958E-02  -0.16428893E+03   0.10565306E+01   0.38071394E-03   0.66666376E+00   0.40105164E+00
  12.3810   0.31803005E-02  -0.16320672E+03   0.10344784E+01   0.37326318E-03   0.66666322E+00   0.41172121E+00
  13.4286   0.33017293E-02  -0.16210020E+03   0.10430140E+01   0.37181094E-03   0.66666252E+00   0.41101789E+00
  14.4762   0.34279205E-02  -0.16101695E+03   0.10453185E+01   0.37096365E-03   0.66666178E+00   0.41054108E+00
  15.5238   0.35771542E-02  -0.15991667E+03   0.10451031E+01   0.37529146E-03   0.66666097E+00   0.41111648E+00
  16.5714   0.36938590E-02  -0.15880006E+03   0.10361324E+01   0.36981912E-03   0.66666014E+00   0.41574274E+00
  17.6190   0.38421951E-02  -0.15769105E+03   0.10707765E+01   0.36736272E-03   0.66665893E+00   0.42377837E+00
  18.6667   0.39493426E-02  -0.15658216E+03   0.10614923E+01   0.37115370E-03   0.66665794E+00   0.41936211E+00
  19.7143   0.40924170E-02  -0.15545098E+03   0.10736551E+01   0.36819038E-03   0.66665667E+00   0.42754063E+00
  20.7619   0.41946409E-02  -0.15432513E+03   0.11080524E+01   0.36942655E-03   0.66665506E+00   0.42575347E+00
  21.8095   0.43021373E-02  -0.15319488E+03   0.10946597E+01   0.36828876E-03   0.66665383E+00   0.42618566E+00
  22.8571   0.44200373E-02  -0.15204619E+03   0.10827807E+01   0.36717513E-03   0.66665251E+00   0.43074597E+00
  23.9048   0.45299931E-02  -0.15090990E+03   0.10824581E+01   0.36609756E-03   0.66665095E+00   0.43200696E+00
  24.9524   0.46519780E-02  -0.14974003E+03   0.10891745E+01   0.36946573E-03   0.66664917E+00   0.43217807E+00
  26.0000   0.47486025E-02  -0.14858296E+03   0.11065773E+01   0.36834847E-03   0.66664706E+00   0.43303149E+00
  27.0476   0.48753153E-02  -0.14740626E+03   0.11078019E+01   0.37083214E-03   0.66664509E+00   0.43610619E+00
  28.0952   0.49610033E-02  -0.14623328E+03   0.11454630E+01   0.36803809E-03   0.66664220E+00   0.43674975E+00
  29.1429   0.50788241E-02  -0.14505658E+03   0.11450029E+01   0.36820858E-03   0.66663993E+00   0.43998247E+00
  30.1905   0.51740098E-02  -0.14385842E+03   0.11404525E+01   0.37020930E-03   0.66663760E+00   0.43828488E+00
  31.2381   0.52703041E-02  -0.14263125E+03   0.11559921E+01   0.37052416E-03   0.66663458E+00   0.44032621E+00
  32.2857   0.53819065E-02  -0.14141143E+03   0.11751563E+01   0.37053719E-03   0.66663123E+00   0.44199130E+00
  33.3333   0.54748999E-02  -0.14018383E+03   0.11863202E+01   0.37656631E-03   0.66662786E+00   0.43812422E+00
  34.3810   0.55748058E-02  -0.13894550E+03   0.11854036E+01   0.37421590E-03   0.66662467E+00   0.44154179E+00
  35.4286   0.56662924E-02  -0.13771120E+03   0.12076312E+01   0.37479973E-03   0.66662043E+00   0.44170359E+00
  36.4762   0.57512275E-02  -0.13641268E+03   0.12589189E+01   0.37524161E-03   0.66661460E+00   0.44121923E+00
  37.5238   0.58519179E-02  -0.13512341E+03   0.12352757E+01   0.37687949E-03   0.66661156E+00   0.44276344E+00
  38.5714   0.59660376E-02  -0.13381259E+03   0.12565214E+01   0.37985828E-03   0.66660628E+00   0.44380039E+00
  39.6190   0.60463425E-02  -0.13247857E+03   0.12997952E+01   0.38103318E-03   0.66659942E+00   0.44269034E+00
  40.6667   0.61386386E-02  -0.13109491E+03   0.13084739E+01   0.38187033E-03   0.66659383E+00   0.44290995E+00
  41.7143   0.62324881E-02  -0.12969052E+03   0.13259536E+01   0.38211967E-03   0.66658732E+00   0.44432807E+00
  42.7619   0.63345297E-02  -0.12823996E+03   0.14232318E+01   0.38645369E-03   0.66657515E+00   0.44370122E+00
  43.8095   0.64024358E-02  -0.12673912E+03   0.14481898E+01   0.38581560E-03   0.66656660E+00   0.44274890E+00
  44.8571   0.64969602E-02  -0.12523462E+03   0.15030449E+01   0.38652341E-03   0.66655514E+00   0.44377666E+00
  45.9048   0.65919873E-02  -0.12372567E+03   0.15023311E+01   0.38942340E-03   0.66654706E+00   0.44412362E+00
  46.9524   0.66976610E-02  -0.12206937E+03   0.15516854E+01   0.39330224E-03   0.66653391E+00   0.44338750E+00
  48.0000   0.67925084E-02  -0.12044337E+03   0.15700677E+01   0.39412419E-03   0.66652241E+00   0.44511305E+00
  49.0476   0.68909584E-02  -0.11873748E+03   0.15756416E+01   0.39744570E-03   0.66651118E+00   0.44489365E+00
  50.0952   0.69780225E-02  -0.11709245E+03   0.15775517E+01   0.39759785E-03   0.66649962E+00   0.44441001E+00
  51.1429   0.70634622E-02  -0.11546713E+03   0.15649843E+01   0.39896391E-03   0.66648911E+00   0.44548423E+00
  52.1905   0.71415182E-02  -0.11381786E+03   0.15551939E+01   0.40210757E-03   0.66647752E+00   0.44449080E+00
  53.2381   0.72449248E-02  -0.11215227E+03   0.15731453E+01   0.40339629E-03   0.66646165E+00   0.44482974E+00
  54.2857   0.73291849E-02  -0.11058373E+03   0.15024142E+01   0.40459513E-03   0.66645720E+00   0.44666704E+00
  55.3333   0.74222045E-02  -0.10901658E+03   0.15048911E+01   0.40718632E-03   0.66644236E+00   0.44620861E+00
  56.3810   0.75063504E-02  -0.10748477E+03   0.14517673E+01   0.40965620E-03   0.66643565E+00   0.44455414E+00
  57.4286   0.75740488E-02  -0.10596987E+03   0.14396345E+01   0.41203962E-03   0.66642209E+00   0.44378981E+00
  58.4762   0.76719034E-02  -0.10445073E+03   0.14257224E+01   0.41181659E-03   0.66640815E+00   0.44492592E+00
  59.5238   0.77591350E-02  -0.10300956E+03   0.13947994E+01   0.41489886E-03   0.66639724E+00   0.44516929E+00
  60.5714   0.78406087E-02  -0.10157984E+03   0.13412808E+01   0.41656849E-03   0.66639078E+00   0.44409350E+00
  61.6190   0.79144359E-02  -0.10017204E+03   0.13137695E+01   0.41848166E-03   0.66637914E+00   0.44394813E+00
  62.6667   0.79781579E-02  -0.98812799E+02   0.12902681E+01   0.41588374E-03   0.66636647E+00   0.44563080E+00
  63.7143   0.80585749E-02  -0.97476517E+02   0.12484303E+01   0.41868730E-03   0.66635818E+00   0.44356976E+00
  64.7619   0.81424813E-02  -0.96172532E+02   0.12386878E+01   0.41853638E-03   0.66634174E+00   0.44474288E+00
  65.8095   0.82155702E-02  -0.94887962E+02   0.11994651E+01   0.41772162E-03   0.66633297E+00   0.44584474E+00
  66.8571   0.82953255E-02  -0.93660286E+02   0.11671238E+01   0.42272293E-03   0.66632272E+00   0.44395224E+00
  67.9048   0.83657190E-02  -0.92438131E+02   0.11387868E+01   0.42186720E-03   0.66631122E+00   0.44441053E+00
  68.9524   0.84345561E-02  -0.91286092E+02   0.11157578E+01   0.42278976E-03   0.66629848E+00   0.44447134E+00
  70.0000   0.84984347E-02  -0.90124663E+02   0.10738232E+01   0.42471375E-03   0.66629197E+00   0.44326896E+00
