 #written on  1Dec2019 at 16:58:59 
 #----------------- MONTECARLO -------------------#
 #        M                      P(M)             #
 #------------------------------------------------#
 #T=     4.0000
  -0.20000000E+01           0.00000000E+00
  -0.19900000E+01           0.00000000E+00
  -0.19800000E+01           0.00000000E+00
  -0.19700000E+01           0.00000000E+00
  -0.19600000E+01           0.00000000E+00
  -0.19500000E+01           0.00000000E+00
  -0.19400000E+01           0.00000000E+00
  -0.19300000E+01           0.00000000E+00
  -0.19200000E+01           0.00000000E+00
  -0.19100000E+01           0.00000000E+00
  -0.19000000E+01           0.00000000E+00
  -0.18900000E+01           0.00000000E+00
  -0.18800000E+01           0.00000000E+00
  -0.18700000E+01           0.00000000E+00
  -0.18600000E+01           0.00000000E+00
  -0.18500000E+01           0.00000000E+00
  -0.18400000E+01           0.00000000E+00
  -0.18300000E+01           0.00000000E+00
  -0.18200000E+01           0.00000000E+00
  -0.18100000E+01           0.00000000E+00
  -0.18000000E+01           0.00000000E+00
  -0.17900000E+01           0.00000000E+00
  -0.17800000E+01           0.00000000E+00
  -0.17700000E+01           0.00000000E+00
  -0.17600000E+01           0.00000000E+00
  -0.17500000E+01           0.00000000E+00
  -0.17400000E+01           0.00000000E+00
  -0.17300000E+01           0.00000000E+00
  -0.17200000E+01           0.00000000E+00
  -0.17100000E+01           0.00000000E+00
  -0.17000000E+01           0.00000000E+00
  -0.16900000E+01           0.00000000E+00
  -0.16800000E+01           0.00000000E+00
  -0.16700000E+01           0.00000000E+00
  -0.16600000E+01           0.00000000E+00
  -0.16500000E+01           0.00000000E+00
  -0.16400000E+01           0.00000000E+00
  -0.16300000E+01           0.00000000E+00
  -0.16200000E+01           0.00000000E+00
  -0.16100000E+01           0.00000000E+00
  -0.16000000E+01           0.00000000E+00
  -0.15900000E+01           0.00000000E+00
  -0.15800000E+01           0.00000000E+00
  -0.15700000E+01           0.00000000E+00
  -0.15600000E+01           0.00000000E+00
  -0.15500000E+01           0.00000000E+00
  -0.15400000E+01           0.00000000E+00
  -0.15300000E+01           0.00000000E+00
  -0.15200000E+01           0.00000000E+00
  -0.15100000E+01           0.00000000E+00
  -0.15000000E+01           0.00000000E+00
  -0.14900000E+01           0.00000000E+00
  -0.14800000E+01           0.00000000E+00
  -0.14700000E+01           0.00000000E+00
  -0.14600000E+01           0.00000000E+00
  -0.14500000E+01           0.00000000E+00
  -0.14400000E+01           0.00000000E+00
  -0.14300000E+01           0.00000000E+00
  -0.14200000E+01           0.00000000E+00
  -0.14100000E+01           0.00000000E+00
  -0.14000000E+01           0.00000000E+00
  -0.13900000E+01           0.00000000E+00
  -0.13800000E+01           0.00000000E+00
  -0.13700000E+01           0.00000000E+00
  -0.13600000E+01           0.00000000E+00
  -0.13500000E+01           0.00000000E+00
  -0.13400000E+01           0.00000000E+00
  -0.13300000E+01           0.00000000E+00
  -0.13200000E+01           0.00000000E+00
  -0.13100000E+01           0.00000000E+00
  -0.13000000E+01           0.00000000E+00
  -0.12900000E+01           0.00000000E+00
  -0.12800000E+01           0.00000000E+00
  -0.12700000E+01           0.00000000E+00
  -0.12600000E+01           0.00000000E+00
  -0.12500000E+01           0.00000000E+00
  -0.12400000E+01           0.00000000E+00
  -0.12300000E+01           0.00000000E+00
  -0.12200000E+01           0.00000000E+00
  -0.12100000E+01           0.00000000E+00
  -0.12000000E+01           0.00000000E+00
  -0.11900000E+01           0.00000000E+00
  -0.11800000E+01           0.00000000E+00
  -0.11700000E+01           0.00000000E+00
  -0.11600000E+01           0.00000000E+00
  -0.11500000E+01           0.00000000E+00
  -0.11400000E+01           0.00000000E+00
  -0.11300000E+01           0.00000000E+00
  -0.11200000E+01           0.00000000E+00
  -0.11100000E+01           0.00000000E+00
  -0.11000000E+01           0.00000000E+00
  -0.10900000E+01           0.00000000E+00
  -0.10800000E+01           0.00000000E+00
  -0.10700000E+01           0.00000000E+00
  -0.10600000E+01           0.00000000E+00
  -0.10500000E+01           0.00000000E+00
  -0.10400000E+01           0.00000000E+00
  -0.10300000E+01           0.00000000E+00
  -0.10200000E+01           0.00000000E+00
  -0.10100000E+01           0.00000000E+00
  -0.10000000E+01           0.00000000E+00
  -0.99000000E+00           0.00000000E+00
  -0.98000000E+00           0.00000000E+00
  -0.97000000E+00           0.00000000E+00
  -0.96000000E+00           0.00000000E+00
  -0.95000000E+00           0.00000000E+00
  -0.94000000E+00           0.00000000E+00
  -0.93000000E+00           0.00000000E+00
  -0.92000000E+00           0.00000000E+00
  -0.91000000E+00           0.00000000E+00
  -0.90000000E+00           0.00000000E+00
  -0.89000000E+00           0.00000000E+00
  -0.88000000E+00           0.00000000E+00
  -0.87000000E+00           0.00000000E+00
  -0.86000000E+00           0.00000000E+00
  -0.85000000E+00           0.00000000E+00
  -0.84000000E+00           0.00000000E+00
  -0.83000000E+00           0.00000000E+00
  -0.82000000E+00           0.00000000E+00
  -0.81000000E+00           0.00000000E+00
  -0.80000000E+00           0.00000000E+00
  -0.79000000E+00           0.00000000E+00
  -0.78000000E+00           0.00000000E+00
  -0.77000000E+00           0.00000000E+00
  -0.76000000E+00           0.00000000E+00
  -0.75000000E+00           0.00000000E+00
  -0.74000000E+00           0.00000000E+00
  -0.73000000E+00           0.00000000E+00
  -0.72000000E+00           0.00000000E+00
  -0.71000000E+00           0.00000000E+00
  -0.70000000E+00           0.00000000E+00
  -0.69000000E+00           0.00000000E+00
  -0.68000000E+00           0.00000000E+00
  -0.67000000E+00           0.00000000E+00
  -0.66000000E+00           0.00000000E+00
  -0.65000000E+00           0.00000000E+00
  -0.64000000E+00           0.00000000E+00
  -0.63000000E+00           0.00000000E+00
  -0.62000000E+00           0.00000000E+00
  -0.61000000E+00           0.00000000E+00
  -0.60000000E+00           0.00000000E+00
  -0.59000000E+00           0.00000000E+00
  -0.58000000E+00           0.00000000E+00
  -0.57000000E+00           0.00000000E+00
  -0.56000000E+00           0.00000000E+00
  -0.55000000E+00           0.00000000E+00
  -0.54000000E+00           0.00000000E+00
  -0.53000000E+00           0.00000000E+00
  -0.52000000E+00           0.00000000E+00
  -0.51000000E+00           0.00000000E+00
  -0.50000000E+00           0.00000000E+00
  -0.49000000E+00           0.00000000E+00
  -0.48000000E+00           0.00000000E+00
  -0.47000000E+00           0.00000000E+00
  -0.46000000E+00           0.00000000E+00
  -0.45000000E+00           0.00000000E+00
  -0.44000000E+00           0.00000000E+00
  -0.43000000E+00           0.00000000E+00
  -0.42000000E+00           0.00000000E+00
  -0.41000000E+00           0.00000000E+00
  -0.40000000E+00           0.00000000E+00
  -0.39000000E+00           0.00000000E+00
  -0.38000000E+00           0.00000000E+00
  -0.37000000E+00           0.00000000E+00
  -0.36000000E+00           0.00000000E+00
  -0.35000000E+00           0.00000000E+00
  -0.34000000E+00           0.00000000E+00
  -0.33000000E+00           0.00000000E+00
  -0.32000000E+00           0.00000000E+00
  -0.31000000E+00           0.00000000E+00
  -0.30000000E+00           0.00000000E+00
  -0.29000000E+00           0.00000000E+00
  -0.28000000E+00           0.00000000E+00
  -0.27000000E+00           0.00000000E+00
  -0.26000000E+00           0.00000000E+00
  -0.25000000E+00           0.00000000E+00
  -0.24000000E+00           0.00000000E+00
  -0.23000000E+00           0.00000000E+00
  -0.22000000E+00           0.00000000E+00
  -0.21000000E+00           0.00000000E+00
  -0.20000000E+00           0.00000000E+00
  -0.19000000E+00           0.00000000E+00
  -0.18000000E+00           0.00000000E+00
  -0.17000000E+00           0.00000000E+00
  -0.16000000E+00           0.00000000E+00
  -0.15000000E+00           0.00000000E+00
  -0.14000000E+00           0.00000000E+00
  -0.13000000E+00           0.00000000E+00
  -0.12000000E+00           0.00000000E+00
  -0.11000000E+00           0.00000000E+00
  -0.10000000E+00           0.00000000E+00
  -0.90000000E-01           0.00000000E+00
  -0.80000000E-01           0.00000000E+00
  -0.70000000E-01           0.00000000E+00
  -0.60000000E-01           0.00000000E+00
  -0.50000000E-01           0.00000000E+00
  -0.40000000E-01           0.00000000E+00
  -0.30000000E-01           0.00000000E+00
  -0.20000000E-01           0.00000000E+00
  -0.10000000E-01           0.00000000E+00
   0.00000000E+00           0.17429688E-01
   0.10000000E-01           0.15195313E+00
   0.20000000E-01           0.33052344E+00
   0.30000000E-01           0.46889844E+00
   0.40000000E-01           0.62740625E+00
   0.50000000E-01           0.80243750E+00
   0.60000000E-01           0.94828906E+00
   0.70000000E-01           0.10813672E+01
   0.80000000E-01           0.11859609E+01
   0.90000000E-01           0.13530000E+01
   0.10000000E+00           0.14595781E+01
   0.11000000E+00           0.15809453E+01
   0.12000000E+00           0.17207188E+01
   0.13000000E+00           0.18049141E+01
   0.14000000E+00           0.19021328E+01
   0.15000000E+00           0.20269141E+01
   0.16000000E+00           0.21267578E+01
   0.17000000E+00           0.21721563E+01
   0.18000000E+00           0.21909531E+01
   0.19000000E+00           0.22886484E+01
   0.20000000E+00           0.23403672E+01
   0.21000000E+00           0.23294063E+01
   0.22000000E+00           0.24052500E+01
   0.23000000E+00           0.24108984E+01
   0.24000000E+00           0.24914609E+01
   0.25000000E+00           0.24273984E+01
   0.26000000E+00           0.24254922E+01
   0.27000000E+00           0.24339453E+01
   0.28000000E+00           0.24005703E+01
   0.29000000E+00           0.23802109E+01
   0.30000000E+00           0.23667891E+01
   0.31000000E+00           0.22585000E+01
   0.32000000E+00           0.22715000E+01
   0.33000000E+00           0.22134531E+01
   0.34000000E+00           0.21335156E+01
   0.35000000E+00           0.21357500E+01
   0.36000000E+00           0.20193672E+01
   0.37000000E+00           0.20132578E+01
   0.38000000E+00           0.19767266E+01
   0.39000000E+00           0.18766797E+01
   0.40000000E+00           0.17685391E+01
   0.41000000E+00           0.17379609E+01
   0.42000000E+00           0.16424063E+01
   0.43000000E+00           0.16094219E+01
   0.44000000E+00           0.15033984E+01
   0.45000000E+00           0.14328594E+01
   0.46000000E+00           0.13655703E+01
   0.47000000E+00           0.12810469E+01
   0.48000000E+00           0.12288984E+01
   0.49000000E+00           0.11480391E+01
   0.50000000E+00           0.11274688E+01
   0.51000000E+00           0.10328047E+01
   0.52000000E+00           0.94578906E+00
   0.53000000E+00           0.90683594E+00
   0.54000000E+00           0.84360156E+00
   0.55000000E+00           0.76806250E+00
   0.56000000E+00           0.71035156E+00
   0.57000000E+00           0.66953125E+00
   0.58000000E+00           0.62396875E+00
   0.59000000E+00           0.58984375E+00
   0.60000000E+00           0.52396875E+00
   0.61000000E+00           0.48761719E+00
   0.62000000E+00           0.44378906E+00
   0.63000000E+00           0.42284375E+00
   0.64000000E+00           0.37493750E+00
   0.65000000E+00           0.34300000E+00
   0.66000000E+00           0.32507031E+00
   0.67000000E+00           0.28958594E+00
   0.68000000E+00           0.26054688E+00
   0.69000000E+00           0.22585938E+00
   0.70000000E+00           0.21134375E+00
   0.71000000E+00           0.17828125E+00
   0.72000000E+00           0.16710938E+00
   0.73000000E+00           0.14225000E+00
   0.74000000E+00           0.12975000E+00
   0.75000000E+00           0.11660156E+00
   0.76000000E+00           0.10578125E+00
   0.77000000E+00           0.98984375E-01
   0.78000000E+00           0.82164063E-01
   0.79000000E+00           0.73171875E-01
   0.80000000E+00           0.66898438E-01
   0.81000000E+00           0.58257813E-01
   0.82000000E+00           0.48882813E-01
   0.83000000E+00           0.49304688E-01
   0.84000000E+00           0.38804688E-01
   0.85000000E+00           0.30765625E-01
   0.86000000E+00           0.28718750E-01
   0.87000000E+00           0.29382813E-01
   0.88000000E+00           0.22179688E-01
   0.89000000E+00           0.20531250E-01
   0.90000000E+00           0.19382813E-01
   0.91000000E+00           0.15937500E-01
   0.92000000E+00           0.11515625E-01
   0.93000000E+00           0.10554688E-01
   0.94000000E+00           0.97968750E-02
   0.95000000E+00           0.81562500E-02
   0.96000000E+00           0.62500000E-02
   0.97000000E+00           0.48437500E-02
   0.98000000E+00           0.65937500E-02
   0.99000000E+00           0.35781250E-02
   0.10000000E+01           0.23359375E-02
   0.10100000E+01           0.35625000E-02
   0.10200000E+01           0.25390625E-02
   0.10300000E+01           0.15546875E-02
   0.10400000E+01           0.18125000E-02
   0.10500000E+01           0.12421875E-02
   0.10600000E+01           0.10078125E-02
   0.10700000E+01           0.92187500E-03
   0.10800000E+01           0.81250000E-03
   0.10900000E+01           0.45312500E-03
   0.11000000E+01           0.20312500E-03
   0.11100000E+01           0.64062500E-03
   0.11200000E+01           0.27343750E-03
   0.11300000E+01           0.25000000E-03
   0.11400000E+01           0.14843750E-03
   0.11500000E+01           0.24218750E-03
   0.11600000E+01           0.11718750E-03
   0.11700000E+01           0.39062500E-03
   0.11800000E+01           0.12500000E-03
   0.11900000E+01           0.26562500E-03
   0.12000000E+01           0.00000000E+00
   0.12100000E+01           0.78125000E-05
   0.12200000E+01           0.00000000E+00
   0.12300000E+01           0.78125000E-05
   0.12400000E+01           0.00000000E+00
   0.12500000E+01           0.31250000E-04
   0.12600000E+01           0.00000000E+00
   0.12700000E+01           0.00000000E+00
   0.12800000E+01           0.00000000E+00
   0.12900000E+01           0.00000000E+00
   0.13000000E+01           0.10937500E-03
   0.13100000E+01           0.00000000E+00
   0.13200000E+01           0.00000000E+00
   0.13300000E+01           0.00000000E+00
   0.13400000E+01           0.00000000E+00
   0.13500000E+01           0.00000000E+00
   0.13600000E+01           0.00000000E+00
   0.13700000E+01           0.00000000E+00
   0.13800000E+01           0.00000000E+00
   0.13900000E+01           0.00000000E+00
   0.14000000E+01           0.00000000E+00
   0.14100000E+01           0.31250000E-04
   0.14200000E+01           0.00000000E+00
   0.14300000E+01           0.00000000E+00
   0.14400000E+01           0.00000000E+00
   0.14500000E+01           0.00000000E+00
   0.14600000E+01           0.00000000E+00
   0.14700000E+01           0.00000000E+00
   0.14800000E+01           0.00000000E+00
   0.14900000E+01           0.00000000E+00
   0.15000000E+01           0.00000000E+00
   0.15100000E+01           0.00000000E+00
   0.15200000E+01           0.00000000E+00
   0.15300000E+01           0.00000000E+00
   0.15400000E+01           0.00000000E+00
   0.15500000E+01           0.00000000E+00
   0.15600000E+01           0.00000000E+00
   0.15700000E+01           0.00000000E+00
   0.15800000E+01           0.00000000E+00
   0.15900000E+01           0.00000000E+00
   0.16000000E+01           0.00000000E+00
   0.16100000E+01           0.00000000E+00
   0.16200000E+01           0.00000000E+00
   0.16300000E+01           0.00000000E+00
   0.16400000E+01           0.00000000E+00
   0.16500000E+01           0.00000000E+00
   0.16600000E+01           0.00000000E+00
   0.16700000E+01           0.00000000E+00
   0.16800000E+01           0.00000000E+00
   0.16900000E+01           0.00000000E+00
   0.17000000E+01           0.00000000E+00
   0.17100000E+01           0.00000000E+00
   0.17200000E+01           0.00000000E+00
   0.17300000E+01           0.00000000E+00
   0.17400000E+01           0.00000000E+00
   0.17500000E+01           0.00000000E+00
   0.17600000E+01           0.00000000E+00
   0.17700000E+01           0.00000000E+00
   0.17800000E+01           0.00000000E+00
   0.17900000E+01           0.00000000E+00
   0.18000000E+01           0.00000000E+00
   0.18100000E+01           0.00000000E+00
   0.18200000E+01           0.00000000E+00
   0.18300000E+01           0.00000000E+00
   0.18400000E+01           0.00000000E+00
   0.18500000E+01           0.00000000E+00
   0.18600000E+01           0.00000000E+00
   0.18700000E+01           0.00000000E+00
   0.18800000E+01           0.00000000E+00
   0.18900000E+01           0.00000000E+00
   0.19000000E+01           0.00000000E+00
   0.19100000E+01           0.00000000E+00
   0.19200000E+01           0.00000000E+00
   0.19300000E+01           0.00000000E+00
   0.19400000E+01           0.00000000E+00
   0.19500000E+01           0.00000000E+00
   0.19600000E+01           0.00000000E+00
   0.19700000E+01           0.00000000E+00
   0.19800000E+01           0.00000000E+00
   0.19900000E+01           0.00000000E+00
   0.20000000E+01           0.00000000E+00
 #T=     5.6170
  -0.20000000E+01           0.00000000E+00
  -0.19900000E+01           0.00000000E+00
  -0.19800000E+01           0.00000000E+00
  -0.19700000E+01           0.00000000E+00
  -0.19600000E+01           0.00000000E+00
  -0.19500000E+01           0.00000000E+00
  -0.19400000E+01           0.00000000E+00
  -0.19300000E+01           0.00000000E+00
  -0.19200000E+01           0.00000000E+00
  -0.19100000E+01           0.00000000E+00
  -0.19000000E+01           0.00000000E+00
  -0.18900000E+01           0.00000000E+00
  -0.18800000E+01           0.00000000E+00
  -0.18700000E+01           0.00000000E+00
  -0.18600000E+01           0.00000000E+00
  -0.18500000E+01           0.00000000E+00
  -0.18400000E+01           0.00000000E+00
  -0.18300000E+01           0.00000000E+00
  -0.18200000E+01           0.00000000E+00
  -0.18100000E+01           0.00000000E+00
  -0.18000000E+01           0.00000000E+00
  -0.17900000E+01           0.00000000E+00
  -0.17800000E+01           0.00000000E+00
  -0.17700000E+01           0.00000000E+00
  -0.17600000E+01           0.00000000E+00
  -0.17500000E+01           0.00000000E+00
  -0.17400000E+01           0.00000000E+00
  -0.17300000E+01           0.00000000E+00
  -0.17200000E+01           0.00000000E+00
  -0.17100000E+01           0.00000000E+00
  -0.17000000E+01           0.00000000E+00
  -0.16900000E+01           0.00000000E+00
  -0.16800000E+01           0.00000000E+00
  -0.16700000E+01           0.00000000E+00
  -0.16600000E+01           0.00000000E+00
  -0.16500000E+01           0.00000000E+00
  -0.16400000E+01           0.00000000E+00
  -0.16300000E+01           0.00000000E+00
  -0.16200000E+01           0.00000000E+00
  -0.16100000E+01           0.00000000E+00
  -0.16000000E+01           0.00000000E+00
  -0.15900000E+01           0.00000000E+00
  -0.15800000E+01           0.00000000E+00
  -0.15700000E+01           0.00000000E+00
  -0.15600000E+01           0.00000000E+00
  -0.15500000E+01           0.00000000E+00
  -0.15400000E+01           0.00000000E+00
  -0.15300000E+01           0.00000000E+00
  -0.15200000E+01           0.00000000E+00
  -0.15100000E+01           0.00000000E+00
  -0.15000000E+01           0.00000000E+00
  -0.14900000E+01           0.00000000E+00
  -0.14800000E+01           0.00000000E+00
  -0.14700000E+01           0.00000000E+00
  -0.14600000E+01           0.00000000E+00
  -0.14500000E+01           0.00000000E+00
  -0.14400000E+01           0.00000000E+00
  -0.14300000E+01           0.00000000E+00
  -0.14200000E+01           0.00000000E+00
  -0.14100000E+01           0.00000000E+00
  -0.14000000E+01           0.00000000E+00
  -0.13900000E+01           0.00000000E+00
  -0.13800000E+01           0.00000000E+00
  -0.13700000E+01           0.00000000E+00
  -0.13600000E+01           0.00000000E+00
  -0.13500000E+01           0.00000000E+00
  -0.13400000E+01           0.00000000E+00
  -0.13300000E+01           0.00000000E+00
  -0.13200000E+01           0.00000000E+00
  -0.13100000E+01           0.00000000E+00
  -0.13000000E+01           0.00000000E+00
  -0.12900000E+01           0.00000000E+00
  -0.12800000E+01           0.00000000E+00
  -0.12700000E+01           0.00000000E+00
  -0.12600000E+01           0.00000000E+00
  -0.12500000E+01           0.00000000E+00
  -0.12400000E+01           0.00000000E+00
  -0.12300000E+01           0.00000000E+00
  -0.12200000E+01           0.00000000E+00
  -0.12100000E+01           0.00000000E+00
  -0.12000000E+01           0.00000000E+00
  -0.11900000E+01           0.00000000E+00
  -0.11800000E+01           0.00000000E+00
  -0.11700000E+01           0.00000000E+00
  -0.11600000E+01           0.00000000E+00
  -0.11500000E+01           0.00000000E+00
  -0.11400000E+01           0.00000000E+00
  -0.11300000E+01           0.00000000E+00
  -0.11200000E+01           0.00000000E+00
  -0.11100000E+01           0.00000000E+00
  -0.11000000E+01           0.00000000E+00
  -0.10900000E+01           0.00000000E+00
  -0.10800000E+01           0.00000000E+00
  -0.10700000E+01           0.00000000E+00
  -0.10600000E+01           0.00000000E+00
  -0.10500000E+01           0.00000000E+00
  -0.10400000E+01           0.00000000E+00
  -0.10300000E+01           0.00000000E+00
  -0.10200000E+01           0.00000000E+00
  -0.10100000E+01           0.00000000E+00
  -0.10000000E+01           0.00000000E+00
  -0.99000000E+00           0.00000000E+00
  -0.98000000E+00           0.00000000E+00
  -0.97000000E+00           0.00000000E+00
  -0.96000000E+00           0.00000000E+00
  -0.95000000E+00           0.00000000E+00
  -0.94000000E+00           0.00000000E+00
  -0.93000000E+00           0.00000000E+00
  -0.92000000E+00           0.00000000E+00
  -0.91000000E+00           0.00000000E+00
  -0.90000000E+00           0.00000000E+00
  -0.89000000E+00           0.00000000E+00
  -0.88000000E+00           0.00000000E+00
  -0.87000000E+00           0.00000000E+00
  -0.86000000E+00           0.00000000E+00
  -0.85000000E+00           0.00000000E+00
  -0.84000000E+00           0.00000000E+00
  -0.83000000E+00           0.00000000E+00
  -0.82000000E+00           0.00000000E+00
  -0.81000000E+00           0.00000000E+00
  -0.80000000E+00           0.00000000E+00
  -0.79000000E+00           0.00000000E+00
  -0.78000000E+00           0.00000000E+00
  -0.77000000E+00           0.00000000E+00
  -0.76000000E+00           0.00000000E+00
  -0.75000000E+00           0.00000000E+00
  -0.74000000E+00           0.00000000E+00
  -0.73000000E+00           0.00000000E+00
  -0.72000000E+00           0.00000000E+00
  -0.71000000E+00           0.00000000E+00
  -0.70000000E+00           0.00000000E+00
  -0.69000000E+00           0.00000000E+00
  -0.68000000E+00           0.00000000E+00
  -0.67000000E+00           0.00000000E+00
  -0.66000000E+00           0.00000000E+00
  -0.65000000E+00           0.00000000E+00
  -0.64000000E+00           0.00000000E+00
  -0.63000000E+00           0.00000000E+00
  -0.62000000E+00           0.00000000E+00
  -0.61000000E+00           0.00000000E+00
  -0.60000000E+00           0.00000000E+00
  -0.59000000E+00           0.00000000E+00
  -0.58000000E+00           0.00000000E+00
  -0.57000000E+00           0.00000000E+00
  -0.56000000E+00           0.00000000E+00
  -0.55000000E+00           0.00000000E+00
  -0.54000000E+00           0.00000000E+00
  -0.53000000E+00           0.00000000E+00
  -0.52000000E+00           0.00000000E+00
  -0.51000000E+00           0.00000000E+00
  -0.50000000E+00           0.00000000E+00
  -0.49000000E+00           0.00000000E+00
  -0.48000000E+00           0.00000000E+00
  -0.47000000E+00           0.00000000E+00
  -0.46000000E+00           0.00000000E+00
  -0.45000000E+00           0.00000000E+00
  -0.44000000E+00           0.00000000E+00
  -0.43000000E+00           0.00000000E+00
  -0.42000000E+00           0.00000000E+00
  -0.41000000E+00           0.00000000E+00
  -0.40000000E+00           0.00000000E+00
  -0.39000000E+00           0.00000000E+00
  -0.38000000E+00           0.00000000E+00
  -0.37000000E+00           0.00000000E+00
  -0.36000000E+00           0.00000000E+00
  -0.35000000E+00           0.00000000E+00
  -0.34000000E+00           0.00000000E+00
  -0.33000000E+00           0.00000000E+00
  -0.32000000E+00           0.00000000E+00
  -0.31000000E+00           0.00000000E+00
  -0.30000000E+00           0.00000000E+00
  -0.29000000E+00           0.00000000E+00
  -0.28000000E+00           0.00000000E+00
  -0.27000000E+00           0.00000000E+00
  -0.26000000E+00           0.00000000E+00
  -0.25000000E+00           0.00000000E+00
  -0.24000000E+00           0.00000000E+00
  -0.23000000E+00           0.00000000E+00
  -0.22000000E+00           0.00000000E+00
  -0.21000000E+00           0.00000000E+00
  -0.20000000E+00           0.00000000E+00
  -0.19000000E+00           0.00000000E+00
  -0.18000000E+00           0.00000000E+00
  -0.17000000E+00           0.00000000E+00
  -0.16000000E+00           0.00000000E+00
  -0.15000000E+00           0.00000000E+00
  -0.14000000E+00           0.00000000E+00
  -0.13000000E+00           0.00000000E+00
  -0.12000000E+00           0.00000000E+00
  -0.11000000E+00           0.00000000E+00
  -0.10000000E+00           0.00000000E+00
  -0.90000000E-01           0.00000000E+00
  -0.80000000E-01           0.00000000E+00
  -0.70000000E-01           0.00000000E+00
  -0.60000000E-01           0.00000000E+00
  -0.50000000E-01           0.00000000E+00
  -0.40000000E-01           0.00000000E+00
  -0.30000000E-01           0.00000000E+00
  -0.20000000E-01           0.00000000E+00
  -0.10000000E-01           0.00000000E+00
   0.00000000E+00           0.00000000E+00
   0.10000000E-01           0.00000000E+00
   0.20000000E-01           0.00000000E+00
   0.30000000E-01           0.00000000E+00
   0.40000000E-01           0.00000000E+00
   0.50000000E-01           0.00000000E+00
   0.60000000E-01           0.00000000E+00
   0.70000000E-01           0.00000000E+00
   0.80000000E-01           0.00000000E+00
   0.90000000E-01           0.00000000E+00
   0.10000000E+00           0.00000000E+00
   0.11000000E+00           0.00000000E+00
   0.12000000E+00           0.00000000E+00
   0.13000000E+00           0.00000000E+00
   0.14000000E+00           0.00000000E+00
   0.15000000E+00           0.00000000E+00
   0.16000000E+00           0.00000000E+00
   0.17000000E+00           0.00000000E+00
   0.18000000E+00           0.00000000E+00
   0.19000000E+00           0.00000000E+00
   0.20000000E+00           0.00000000E+00
   0.21000000E+00           0.00000000E+00
   0.22000000E+00           0.00000000E+00
   0.23000000E+00           0.00000000E+00
   0.24000000E+00           0.00000000E+00
   0.25000000E+00           0.00000000E+00
   0.26000000E+00           0.00000000E+00
   0.27000000E+00           0.00000000E+00
   0.28000000E+00           0.00000000E+00
   0.29000000E+00           0.00000000E+00
   0.30000000E+00           0.00000000E+00
   0.31000000E+00           0.00000000E+00
   0.32000000E+00           0.00000000E+00
   0.33000000E+00           0.00000000E+00
   0.34000000E+00           0.00000000E+00
   0.35000000E+00           0.00000000E+00
   0.36000000E+00           0.00000000E+00
   0.37000000E+00           0.00000000E+00
   0.38000000E+00           0.00000000E+00
   0.39000000E+00           0.00000000E+00
   0.40000000E+00           0.00000000E+00
   0.41000000E+00           0.00000000E+00
   0.42000000E+00           0.00000000E+00
   0.43000000E+00           0.00000000E+00
   0.44000000E+00           0.00000000E+00
   0.45000000E+00           0.00000000E+00
   0.46000000E+00           0.00000000E+00
   0.47000000E+00           0.00000000E+00
   0.48000000E+00           0.00000000E+00
   0.49000000E+00           0.00000000E+00
   0.50000000E+00           0.00000000E+00
   0.51000000E+00           0.00000000E+00
   0.52000000E+00           0.00000000E+00
   0.53000000E+00           0.00000000E+00
   0.54000000E+00           0.00000000E+00
   0.55000000E+00           0.00000000E+00
   0.56000000E+00           0.00000000E+00
   0.57000000E+00           0.00000000E+00
   0.58000000E+00           0.00000000E+00
   0.59000000E+00           0.00000000E+00
   0.60000000E+00           0.00000000E+00
   0.61000000E+00           0.00000000E+00
   0.62000000E+00           0.00000000E+00
   0.63000000E+00           0.00000000E+00
   0.64000000E+00           0.00000000E+00
   0.65000000E+00           0.00000000E+00
   0.66000000E+00           0.00000000E+00
   0.67000000E+00           0.00000000E+00
   0.68000000E+00           0.00000000E+00
   0.69000000E+00           0.00000000E+00
   0.70000000E+00           0.00000000E+00
   0.71000000E+00           0.00000000E+00
   0.72000000E+00           0.00000000E+00
   0.73000000E+00           0.00000000E+00
   0.74000000E+00           0.00000000E+00
   0.75000000E+00           0.00000000E+00
   0.76000000E+00           0.00000000E+00
   0.77000000E+00           0.00000000E+00
   0.78000000E+00           0.00000000E+00
   0.79000000E+00           0.00000000E+00
   0.80000000E+00           0.00000000E+00
   0.81000000E+00           0.00000000E+00
   0.82000000E+00           0.00000000E+00
   0.83000000E+00           0.00000000E+00
   0.84000000E+00           0.00000000E+00
   0.85000000E+00           0.00000000E+00
   0.86000000E+00           0.00000000E+00
   0.87000000E+00           0.00000000E+00
   0.88000000E+00           0.00000000E+00
   0.89000000E+00           0.00000000E+00
   0.90000000E+00           0.00000000E+00
   0.91000000E+00           0.00000000E+00
   0.92000000E+00           0.00000000E+00
   0.93000000E+00           0.78125000E-05
   0.94000000E+00           0.00000000E+00
   0.95000000E+00           0.00000000E+00
   0.96000000E+00           0.00000000E+00
   0.97000000E+00           0.00000000E+00
   0.98000000E+00           0.00000000E+00
   0.99000000E+00           0.00000000E+00
   0.10000000E+01           0.00000000E+00
   0.10100000E+01           0.00000000E+00
   0.10200000E+01           0.00000000E+00
   0.10300000E+01           0.00000000E+00
   0.10400000E+01           0.00000000E+00
   0.10500000E+01           0.00000000E+00
   0.10600000E+01           0.00000000E+00
   0.10700000E+01           0.00000000E+00
   0.10800000E+01           0.78125000E-05
   0.10900000E+01           0.00000000E+00
   0.11000000E+01           0.00000000E+00
   0.11100000E+01           0.00000000E+00
   0.11200000E+01           0.00000000E+00
   0.11300000E+01           0.00000000E+00
   0.11400000E+01           0.00000000E+00
   0.11500000E+01           0.00000000E+00
   0.11600000E+01           0.39062500E-04
   0.11700000E+01           0.00000000E+00
   0.11800000E+01           0.00000000E+00
   0.11900000E+01           0.31250000E-04
   0.12000000E+01           0.12500000E-03
   0.12100000E+01           0.10156250E-03
   0.12200000E+01           0.00000000E+00
   0.12300000E+01           0.20312500E-03
   0.12400000E+01           0.23437500E-04
   0.12500000E+01           0.00000000E+00
   0.12600000E+01           0.10937500E-03
   0.12700000E+01           0.46875000E-04
   0.12800000E+01           0.78125000E-05
   0.12900000E+01           0.78125000E-05
   0.13000000E+01           0.00000000E+00
   0.13100000E+01           0.46875000E-04
   0.13200000E+01           0.00000000E+00
   0.13300000E+01           0.78125000E-05
   0.13400000E+01           0.78125000E-05
   0.13500000E+01           0.13281250E-03
   0.13600000E+01           0.00000000E+00
   0.13700000E+01           0.31250000E-04
   0.13800000E+01           0.11718750E-03
   0.13900000E+01           0.35937500E-03
   0.14000000E+01           0.11718750E-03
   0.14100000E+01           0.31250000E-03
   0.14200000E+01           0.21875000E-03
   0.14300000E+01           0.16406250E-03
   0.14400000E+01           0.43750000E-03
   0.14500000E+01           0.85156250E-03
   0.14600000E+01           0.67968750E-03
   0.14700000E+01           0.98437500E-03
   0.14800000E+01           0.82812500E-03
   0.14900000E+01           0.94531250E-03
   0.15000000E+01           0.96093750E-03
   0.15100000E+01           0.98437500E-03
   0.15200000E+01           0.11953125E-02
   0.15300000E+01           0.17109375E-02
   0.15400000E+01           0.26562500E-02
   0.15500000E+01           0.40156250E-02
   0.15600000E+01           0.38281250E-02
   0.15700000E+01           0.36093750E-02
   0.15800000E+01           0.58984375E-02
   0.15900000E+01           0.60312500E-02
   0.16000000E+01           0.59453125E-02
   0.16100000E+01           0.11250000E-01
   0.16200000E+01           0.11531250E-01
   0.16300000E+01           0.12156250E-01
   0.16400000E+01           0.13265625E-01
   0.16500000E+01           0.17500000E-01
   0.16600000E+01           0.23359375E-01
   0.16700000E+01           0.25882813E-01
   0.16800000E+01           0.33820313E-01
   0.16900000E+01           0.37390625E-01
   0.17000000E+01           0.45828125E-01
   0.17100000E+01           0.55609375E-01
   0.17200000E+01           0.68679688E-01
   0.17300000E+01           0.81570313E-01
   0.17400000E+01           0.94765625E-01
   0.17500000E+01           0.11607031E+00
   0.17600000E+01           0.13565625E+00
   0.17700000E+01           0.18035156E+00
   0.17800000E+01           0.21354688E+00
   0.17900000E+01           0.26976563E+00
   0.18000000E+01           0.32917969E+00
   0.18100000E+01           0.40300000E+00
   0.18200000E+01           0.48285938E+00
   0.18300000E+01           0.57823438E+00
   0.18400000E+01           0.73229688E+00
   0.18500000E+01           0.88901563E+00
   0.18600000E+01           0.10805547E+01
   0.18700000E+01           0.13387188E+01
   0.18800000E+01           0.16580781E+01
   0.18900000E+01           0.20697813E+01
   0.19000000E+01           0.25465234E+01
   0.19100000E+01           0.31320703E+01
   0.19200000E+01           0.38298438E+01
   0.19300000E+01           0.47506016E+01
   0.19400000E+01           0.58776797E+01
   0.19500000E+01           0.72542266E+01
   0.19600000E+01           0.90512813E+01
   0.19700000E+01           0.11243602E+02
   0.19800000E+01           0.13933555E+02
   0.19900000E+01           0.17215859E+02
   0.20000000E+01           0.10111250E+02
 #T=     7.2340
  -0.20000000E+01           0.00000000E+00
  -0.19900000E+01           0.00000000E+00
  -0.19800000E+01           0.00000000E+00
  -0.19700000E+01           0.00000000E+00
  -0.19600000E+01           0.00000000E+00
  -0.19500000E+01           0.00000000E+00
  -0.19400000E+01           0.00000000E+00
  -0.19300000E+01           0.00000000E+00
  -0.19200000E+01           0.00000000E+00
  -0.19100000E+01           0.00000000E+00
  -0.19000000E+01           0.00000000E+00
  -0.18900000E+01           0.00000000E+00
  -0.18800000E+01           0.00000000E+00
  -0.18700000E+01           0.00000000E+00
  -0.18600000E+01           0.00000000E+00
  -0.18500000E+01           0.00000000E+00
  -0.18400000E+01           0.00000000E+00
  -0.18300000E+01           0.00000000E+00
  -0.18200000E+01           0.00000000E+00
  -0.18100000E+01           0.00000000E+00
  -0.18000000E+01           0.00000000E+00
  -0.17900000E+01           0.00000000E+00
  -0.17800000E+01           0.00000000E+00
  -0.17700000E+01           0.00000000E+00
  -0.17600000E+01           0.00000000E+00
  -0.17500000E+01           0.00000000E+00
  -0.17400000E+01           0.00000000E+00
  -0.17300000E+01           0.00000000E+00
  -0.17200000E+01           0.00000000E+00
  -0.17100000E+01           0.00000000E+00
  -0.17000000E+01           0.00000000E+00
  -0.16900000E+01           0.00000000E+00
  -0.16800000E+01           0.00000000E+00
  -0.16700000E+01           0.00000000E+00
  -0.16600000E+01           0.00000000E+00
  -0.16500000E+01           0.00000000E+00
  -0.16400000E+01           0.00000000E+00
  -0.16300000E+01           0.00000000E+00
  -0.16200000E+01           0.00000000E+00
  -0.16100000E+01           0.00000000E+00
  -0.16000000E+01           0.00000000E+00
  -0.15900000E+01           0.00000000E+00
  -0.15800000E+01           0.00000000E+00
  -0.15700000E+01           0.00000000E+00
  -0.15600000E+01           0.00000000E+00
  -0.15500000E+01           0.00000000E+00
  -0.15400000E+01           0.00000000E+00
  -0.15300000E+01           0.00000000E+00
  -0.15200000E+01           0.00000000E+00
  -0.15100000E+01           0.00000000E+00
  -0.15000000E+01           0.00000000E+00
  -0.14900000E+01           0.00000000E+00
  -0.14800000E+01           0.00000000E+00
  -0.14700000E+01           0.00000000E+00
  -0.14600000E+01           0.00000000E+00
  -0.14500000E+01           0.00000000E+00
  -0.14400000E+01           0.00000000E+00
  -0.14300000E+01           0.00000000E+00
  -0.14200000E+01           0.00000000E+00
  -0.14100000E+01           0.00000000E+00
  -0.14000000E+01           0.00000000E+00
  -0.13900000E+01           0.00000000E+00
  -0.13800000E+01           0.00000000E+00
  -0.13700000E+01           0.00000000E+00
  -0.13600000E+01           0.00000000E+00
  -0.13500000E+01           0.00000000E+00
  -0.13400000E+01           0.00000000E+00
  -0.13300000E+01           0.00000000E+00
  -0.13200000E+01           0.00000000E+00
  -0.13100000E+01           0.00000000E+00
  -0.13000000E+01           0.00000000E+00
  -0.12900000E+01           0.00000000E+00
  -0.12800000E+01           0.00000000E+00
  -0.12700000E+01           0.00000000E+00
  -0.12600000E+01           0.00000000E+00
  -0.12500000E+01           0.00000000E+00
  -0.12400000E+01           0.00000000E+00
  -0.12300000E+01           0.00000000E+00
  -0.12200000E+01           0.00000000E+00
  -0.12100000E+01           0.00000000E+00
  -0.12000000E+01           0.00000000E+00
  -0.11900000E+01           0.00000000E+00
  -0.11800000E+01           0.00000000E+00
  -0.11700000E+01           0.00000000E+00
  -0.11600000E+01           0.00000000E+00
  -0.11500000E+01           0.00000000E+00
  -0.11400000E+01           0.00000000E+00
  -0.11300000E+01           0.00000000E+00
  -0.11200000E+01           0.00000000E+00
  -0.11100000E+01           0.00000000E+00
  -0.11000000E+01           0.00000000E+00
  -0.10900000E+01           0.00000000E+00
  -0.10800000E+01           0.00000000E+00
  -0.10700000E+01           0.00000000E+00
  -0.10600000E+01           0.00000000E+00
  -0.10500000E+01           0.00000000E+00
  -0.10400000E+01           0.00000000E+00
  -0.10300000E+01           0.00000000E+00
  -0.10200000E+01           0.00000000E+00
  -0.10100000E+01           0.00000000E+00
  -0.10000000E+01           0.00000000E+00
  -0.99000000E+00           0.00000000E+00
  -0.98000000E+00           0.00000000E+00
  -0.97000000E+00           0.00000000E+00
  -0.96000000E+00           0.00000000E+00
  -0.95000000E+00           0.00000000E+00
  -0.94000000E+00           0.00000000E+00
  -0.93000000E+00           0.00000000E+00
  -0.92000000E+00           0.00000000E+00
  -0.91000000E+00           0.00000000E+00
  -0.90000000E+00           0.00000000E+00
  -0.89000000E+00           0.00000000E+00
  -0.88000000E+00           0.00000000E+00
  -0.87000000E+00           0.00000000E+00
  -0.86000000E+00           0.00000000E+00
  -0.85000000E+00           0.00000000E+00
  -0.84000000E+00           0.00000000E+00
  -0.83000000E+00           0.00000000E+00
  -0.82000000E+00           0.00000000E+00
  -0.81000000E+00           0.00000000E+00
  -0.80000000E+00           0.00000000E+00
  -0.79000000E+00           0.00000000E+00
  -0.78000000E+00           0.00000000E+00
  -0.77000000E+00           0.00000000E+00
  -0.76000000E+00           0.00000000E+00
  -0.75000000E+00           0.00000000E+00
  -0.74000000E+00           0.00000000E+00
  -0.73000000E+00           0.00000000E+00
  -0.72000000E+00           0.00000000E+00
  -0.71000000E+00           0.00000000E+00
  -0.70000000E+00           0.00000000E+00
  -0.69000000E+00           0.00000000E+00
  -0.68000000E+00           0.00000000E+00
  -0.67000000E+00           0.00000000E+00
  -0.66000000E+00           0.00000000E+00
  -0.65000000E+00           0.00000000E+00
  -0.64000000E+00           0.00000000E+00
  -0.63000000E+00           0.00000000E+00
  -0.62000000E+00           0.00000000E+00
  -0.61000000E+00           0.00000000E+00
  -0.60000000E+00           0.00000000E+00
  -0.59000000E+00           0.00000000E+00
  -0.58000000E+00           0.00000000E+00
  -0.57000000E+00           0.00000000E+00
  -0.56000000E+00           0.00000000E+00
  -0.55000000E+00           0.00000000E+00
  -0.54000000E+00           0.00000000E+00
  -0.53000000E+00           0.00000000E+00
  -0.52000000E+00           0.00000000E+00
  -0.51000000E+00           0.00000000E+00
  -0.50000000E+00           0.00000000E+00
  -0.49000000E+00           0.00000000E+00
  -0.48000000E+00           0.00000000E+00
  -0.47000000E+00           0.00000000E+00
  -0.46000000E+00           0.00000000E+00
  -0.45000000E+00           0.00000000E+00
  -0.44000000E+00           0.00000000E+00
  -0.43000000E+00           0.00000000E+00
  -0.42000000E+00           0.00000000E+00
  -0.41000000E+00           0.00000000E+00
  -0.40000000E+00           0.00000000E+00
  -0.39000000E+00           0.00000000E+00
  -0.38000000E+00           0.00000000E+00
  -0.37000000E+00           0.00000000E+00
  -0.36000000E+00           0.00000000E+00
  -0.35000000E+00           0.00000000E+00
  -0.34000000E+00           0.00000000E+00
  -0.33000000E+00           0.00000000E+00
  -0.32000000E+00           0.00000000E+00
  -0.31000000E+00           0.00000000E+00
  -0.30000000E+00           0.00000000E+00
  -0.29000000E+00           0.00000000E+00
  -0.28000000E+00           0.00000000E+00
  -0.27000000E+00           0.00000000E+00
  -0.26000000E+00           0.00000000E+00
  -0.25000000E+00           0.00000000E+00
  -0.24000000E+00           0.00000000E+00
  -0.23000000E+00           0.00000000E+00
  -0.22000000E+00           0.00000000E+00
  -0.21000000E+00           0.00000000E+00
  -0.20000000E+00           0.00000000E+00
  -0.19000000E+00           0.00000000E+00
  -0.18000000E+00           0.00000000E+00
  -0.17000000E+00           0.00000000E+00
  -0.16000000E+00           0.00000000E+00
  -0.15000000E+00           0.00000000E+00
  -0.14000000E+00           0.00000000E+00
  -0.13000000E+00           0.00000000E+00
  -0.12000000E+00           0.00000000E+00
  -0.11000000E+00           0.00000000E+00
  -0.10000000E+00           0.00000000E+00
  -0.90000000E-01           0.00000000E+00
  -0.80000000E-01           0.00000000E+00
  -0.70000000E-01           0.00000000E+00
  -0.60000000E-01           0.00000000E+00
  -0.50000000E-01           0.00000000E+00
  -0.40000000E-01           0.00000000E+00
  -0.30000000E-01           0.00000000E+00
  -0.20000000E-01           0.00000000E+00
  -0.10000000E-01           0.00000000E+00
   0.00000000E+00           0.00000000E+00
   0.10000000E-01           0.00000000E+00
   0.20000000E-01           0.00000000E+00
   0.30000000E-01           0.00000000E+00
   0.40000000E-01           0.00000000E+00
   0.50000000E-01           0.00000000E+00
   0.60000000E-01           0.00000000E+00
   0.70000000E-01           0.00000000E+00
   0.80000000E-01           0.00000000E+00
   0.90000000E-01           0.00000000E+00
   0.10000000E+00           0.00000000E+00
   0.11000000E+00           0.00000000E+00
   0.12000000E+00           0.00000000E+00
   0.13000000E+00           0.00000000E+00
   0.14000000E+00           0.00000000E+00
   0.15000000E+00           0.00000000E+00
   0.16000000E+00           0.00000000E+00
   0.17000000E+00           0.00000000E+00
   0.18000000E+00           0.00000000E+00
   0.19000000E+00           0.00000000E+00
   0.20000000E+00           0.00000000E+00
   0.21000000E+00           0.00000000E+00
   0.22000000E+00           0.00000000E+00
   0.23000000E+00           0.00000000E+00
   0.24000000E+00           0.00000000E+00
   0.25000000E+00           0.00000000E+00
   0.26000000E+00           0.00000000E+00
   0.27000000E+00           0.00000000E+00
   0.28000000E+00           0.00000000E+00
   0.29000000E+00           0.00000000E+00
   0.30000000E+00           0.00000000E+00
   0.31000000E+00           0.00000000E+00
   0.32000000E+00           0.00000000E+00
   0.33000000E+00           0.00000000E+00
   0.34000000E+00           0.00000000E+00
   0.35000000E+00           0.00000000E+00
   0.36000000E+00           0.00000000E+00
   0.37000000E+00           0.00000000E+00
   0.38000000E+00           0.00000000E+00
   0.39000000E+00           0.00000000E+00
   0.40000000E+00           0.00000000E+00
   0.41000000E+00           0.00000000E+00
   0.42000000E+00           0.00000000E+00
   0.43000000E+00           0.00000000E+00
   0.44000000E+00           0.00000000E+00
   0.45000000E+00           0.00000000E+00
   0.46000000E+00           0.00000000E+00
   0.47000000E+00           0.00000000E+00
   0.48000000E+00           0.00000000E+00
   0.49000000E+00           0.00000000E+00
   0.50000000E+00           0.00000000E+00
   0.51000000E+00           0.00000000E+00
   0.52000000E+00           0.00000000E+00
   0.53000000E+00           0.00000000E+00
   0.54000000E+00           0.00000000E+00
   0.55000000E+00           0.00000000E+00
   0.56000000E+00           0.00000000E+00
   0.57000000E+00           0.00000000E+00
   0.58000000E+00           0.00000000E+00
   0.59000000E+00           0.00000000E+00
   0.60000000E+00           0.00000000E+00
   0.61000000E+00           0.00000000E+00
   0.62000000E+00           0.00000000E+00
   0.63000000E+00           0.00000000E+00
   0.64000000E+00           0.00000000E+00
   0.65000000E+00           0.00000000E+00
   0.66000000E+00           0.00000000E+00
   0.67000000E+00           0.00000000E+00
   0.68000000E+00           0.00000000E+00
   0.69000000E+00           0.00000000E+00
   0.70000000E+00           0.00000000E+00
   0.71000000E+00           0.00000000E+00
   0.72000000E+00           0.00000000E+00
   0.73000000E+00           0.00000000E+00
   0.74000000E+00           0.00000000E+00
   0.75000000E+00           0.00000000E+00
   0.76000000E+00           0.00000000E+00
   0.77000000E+00           0.00000000E+00
   0.78000000E+00           0.00000000E+00
   0.79000000E+00           0.00000000E+00
   0.80000000E+00           0.00000000E+00
   0.81000000E+00           0.00000000E+00
   0.82000000E+00           0.00000000E+00
   0.83000000E+00           0.00000000E+00
   0.84000000E+00           0.00000000E+00
   0.85000000E+00           0.00000000E+00
   0.86000000E+00           0.00000000E+00
   0.87000000E+00           0.00000000E+00
   0.88000000E+00           0.00000000E+00
   0.89000000E+00           0.00000000E+00
   0.90000000E+00           0.00000000E+00
   0.91000000E+00           0.00000000E+00
   0.92000000E+00           0.00000000E+00
   0.93000000E+00           0.00000000E+00
   0.94000000E+00           0.00000000E+00
   0.95000000E+00           0.00000000E+00
   0.96000000E+00           0.00000000E+00
   0.97000000E+00           0.00000000E+00
   0.98000000E+00           0.00000000E+00
   0.99000000E+00           0.00000000E+00
   0.10000000E+01           0.00000000E+00
   0.10100000E+01           0.00000000E+00
   0.10200000E+01           0.00000000E+00
   0.10300000E+01           0.00000000E+00
   0.10400000E+01           0.00000000E+00
   0.10500000E+01           0.00000000E+00
   0.10600000E+01           0.00000000E+00
   0.10700000E+01           0.00000000E+00
   0.10800000E+01           0.00000000E+00
   0.10900000E+01           0.00000000E+00
   0.11000000E+01           0.00000000E+00
   0.11100000E+01           0.00000000E+00
   0.11200000E+01           0.78125000E-05
   0.11300000E+01           0.15625000E-04
   0.11400000E+01           0.00000000E+00
   0.11500000E+01           0.39062500E-04
   0.11600000E+01           0.00000000E+00
   0.11700000E+01           0.00000000E+00
   0.11800000E+01           0.39062500E-04
   0.11900000E+01           0.14062500E-03
   0.12000000E+01           0.78125000E-05
   0.12100000E+01           0.31250000E-04
   0.12200000E+01           0.85937500E-04
   0.12300000E+01           0.70312500E-04
   0.12400000E+01           0.93750000E-04
   0.12500000E+01           0.00000000E+00
   0.12600000E+01           0.25000000E-03
   0.12700000E+01           0.10156250E-03
   0.12800000E+01           0.17968750E-03
   0.12900000E+01           0.17968750E-03
   0.13000000E+01           0.30468750E-03
   0.13100000E+01           0.32812500E-03
   0.13200000E+01           0.54687500E-03
   0.13300000E+01           0.55468750E-03
   0.13400000E+01           0.52343750E-03
   0.13500000E+01           0.66406250E-03
   0.13600000E+01           0.79687500E-03
   0.13700000E+01           0.89062500E-03
   0.13800000E+01           0.11406250E-02
   0.13900000E+01           0.10781250E-02
   0.14000000E+01           0.13671875E-02
   0.14100000E+01           0.11640625E-02
   0.14200000E+01           0.14921875E-02
   0.14300000E+01           0.21171875E-02
   0.14400000E+01           0.22031250E-02
   0.14500000E+01           0.20234375E-02
   0.14600000E+01           0.23515625E-02
   0.14700000E+01           0.48281250E-02
   0.14800000E+01           0.45468750E-02
   0.14900000E+01           0.46171875E-02
   0.15000000E+01           0.51250000E-02
   0.15100000E+01           0.80156250E-02
   0.15200000E+01           0.78593750E-02
   0.15300000E+01           0.86796875E-02
   0.15400000E+01           0.92656250E-02
   0.15500000E+01           0.12398438E-01
   0.15600000E+01           0.15812500E-01
   0.15700000E+01           0.17671875E-01
   0.15800000E+01           0.22460938E-01
   0.15900000E+01           0.24632813E-01
   0.16000000E+01           0.30007813E-01
   0.16100000E+01           0.35742188E-01
   0.16200000E+01           0.39992188E-01
   0.16300000E+01           0.48117188E-01
   0.16400000E+01           0.52453125E-01
   0.16500000E+01           0.62640625E-01
   0.16600000E+01           0.70585938E-01
   0.16700000E+01           0.88562500E-01
   0.16800000E+01           0.10203125E+00
   0.16900000E+01           0.11760938E+00
   0.17000000E+01           0.13781250E+00
   0.17100000E+01           0.16325781E+00
   0.17200000E+01           0.18662500E+00
   0.17300000E+01           0.21520313E+00
   0.17400000E+01           0.25270313E+00
   0.17500000E+01           0.30175000E+00
   0.17600000E+01           0.35257813E+00
   0.17700000E+01           0.40293750E+00
   0.17800000E+01           0.48196875E+00
   0.17900000E+01           0.55520313E+00
   0.18000000E+01           0.65296094E+00
   0.18100000E+01           0.76288281E+00
   0.18200000E+01           0.88810938E+00
   0.18300000E+01           0.10576641E+01
   0.18400000E+01           0.12214531E+01
   0.18500000E+01           0.14397813E+01
   0.18600000E+01           0.16940234E+01
   0.18700000E+01           0.19400391E+01
   0.18800000E+01           0.23281641E+01
   0.18900000E+01           0.27023203E+01
   0.19000000E+01           0.31702344E+01
   0.19100000E+01           0.37522109E+01
   0.19200000E+01           0.43867578E+01
   0.19300000E+01           0.51987344E+01
   0.19400000E+01           0.60540313E+01
   0.19500000E+01           0.71002109E+01
   0.19600000E+01           0.84242344E+01
   0.19700000E+01           0.99824609E+01
   0.19800000E+01           0.11750188E+02
   0.19900000E+01           0.13863219E+02
   0.20000000E+01           0.77658359E+01
 #T=     8.8511
  -0.20000000E+01           0.00000000E+00
  -0.19900000E+01           0.00000000E+00
  -0.19800000E+01           0.00000000E+00
  -0.19700000E+01           0.00000000E+00
  -0.19600000E+01           0.00000000E+00
  -0.19500000E+01           0.00000000E+00
  -0.19400000E+01           0.00000000E+00
  -0.19300000E+01           0.00000000E+00
  -0.19200000E+01           0.00000000E+00
  -0.19100000E+01           0.00000000E+00
  -0.19000000E+01           0.00000000E+00
  -0.18900000E+01           0.00000000E+00
  -0.18800000E+01           0.00000000E+00
  -0.18700000E+01           0.00000000E+00
  -0.18600000E+01           0.00000000E+00
  -0.18500000E+01           0.00000000E+00
  -0.18400000E+01           0.00000000E+00
  -0.18300000E+01           0.00000000E+00
  -0.18200000E+01           0.00000000E+00
  -0.18100000E+01           0.00000000E+00
  -0.18000000E+01           0.00000000E+00
  -0.17900000E+01           0.00000000E+00
  -0.17800000E+01           0.00000000E+00
  -0.17700000E+01           0.00000000E+00
  -0.17600000E+01           0.00000000E+00
  -0.17500000E+01           0.00000000E+00
  -0.17400000E+01           0.00000000E+00
  -0.17300000E+01           0.00000000E+00
  -0.17200000E+01           0.00000000E+00
  -0.17100000E+01           0.00000000E+00
  -0.17000000E+01           0.00000000E+00
  -0.16900000E+01           0.00000000E+00
  -0.16800000E+01           0.00000000E+00
  -0.16700000E+01           0.00000000E+00
  -0.16600000E+01           0.00000000E+00
  -0.16500000E+01           0.00000000E+00
  -0.16400000E+01           0.00000000E+00
  -0.16300000E+01           0.00000000E+00
  -0.16200000E+01           0.00000000E+00
  -0.16100000E+01           0.00000000E+00
  -0.16000000E+01           0.00000000E+00
  -0.15900000E+01           0.00000000E+00
  -0.15800000E+01           0.00000000E+00
  -0.15700000E+01           0.00000000E+00
  -0.15600000E+01           0.00000000E+00
  -0.15500000E+01           0.00000000E+00
  -0.15400000E+01           0.00000000E+00
  -0.15300000E+01           0.00000000E+00
  -0.15200000E+01           0.00000000E+00
  -0.15100000E+01           0.00000000E+00
  -0.15000000E+01           0.00000000E+00
  -0.14900000E+01           0.00000000E+00
  -0.14800000E+01           0.00000000E+00
  -0.14700000E+01           0.00000000E+00
  -0.14600000E+01           0.00000000E+00
  -0.14500000E+01           0.00000000E+00
  -0.14400000E+01           0.00000000E+00
  -0.14300000E+01           0.00000000E+00
  -0.14200000E+01           0.00000000E+00
  -0.14100000E+01           0.00000000E+00
  -0.14000000E+01           0.00000000E+00
  -0.13900000E+01           0.00000000E+00
  -0.13800000E+01           0.00000000E+00
  -0.13700000E+01           0.00000000E+00
  -0.13600000E+01           0.00000000E+00
  -0.13500000E+01           0.00000000E+00
  -0.13400000E+01           0.00000000E+00
  -0.13300000E+01           0.00000000E+00
  -0.13200000E+01           0.00000000E+00
  -0.13100000E+01           0.00000000E+00
  -0.13000000E+01           0.00000000E+00
  -0.12900000E+01           0.00000000E+00
  -0.12800000E+01           0.00000000E+00
  -0.12700000E+01           0.00000000E+00
  -0.12600000E+01           0.00000000E+00
  -0.12500000E+01           0.00000000E+00
  -0.12400000E+01           0.00000000E+00
  -0.12300000E+01           0.00000000E+00
  -0.12200000E+01           0.00000000E+00
  -0.12100000E+01           0.00000000E+00
  -0.12000000E+01           0.00000000E+00
  -0.11900000E+01           0.00000000E+00
  -0.11800000E+01           0.00000000E+00
  -0.11700000E+01           0.00000000E+00
  -0.11600000E+01           0.00000000E+00
  -0.11500000E+01           0.00000000E+00
  -0.11400000E+01           0.00000000E+00
  -0.11300000E+01           0.00000000E+00
  -0.11200000E+01           0.00000000E+00
  -0.11100000E+01           0.00000000E+00
  -0.11000000E+01           0.00000000E+00
  -0.10900000E+01           0.00000000E+00
  -0.10800000E+01           0.00000000E+00
  -0.10700000E+01           0.00000000E+00
  -0.10600000E+01           0.00000000E+00
  -0.10500000E+01           0.00000000E+00
  -0.10400000E+01           0.00000000E+00
  -0.10300000E+01           0.00000000E+00
  -0.10200000E+01           0.00000000E+00
  -0.10100000E+01           0.00000000E+00
  -0.10000000E+01           0.00000000E+00
  -0.99000000E+00           0.00000000E+00
  -0.98000000E+00           0.00000000E+00
  -0.97000000E+00           0.00000000E+00
  -0.96000000E+00           0.00000000E+00
  -0.95000000E+00           0.00000000E+00
  -0.94000000E+00           0.00000000E+00
  -0.93000000E+00           0.00000000E+00
  -0.92000000E+00           0.00000000E+00
  -0.91000000E+00           0.00000000E+00
  -0.90000000E+00           0.00000000E+00
  -0.89000000E+00           0.00000000E+00
  -0.88000000E+00           0.00000000E+00
  -0.87000000E+00           0.00000000E+00
  -0.86000000E+00           0.00000000E+00
  -0.85000000E+00           0.00000000E+00
  -0.84000000E+00           0.00000000E+00
  -0.83000000E+00           0.00000000E+00
  -0.82000000E+00           0.00000000E+00
  -0.81000000E+00           0.00000000E+00
  -0.80000000E+00           0.00000000E+00
  -0.79000000E+00           0.00000000E+00
  -0.78000000E+00           0.00000000E+00
  -0.77000000E+00           0.00000000E+00
  -0.76000000E+00           0.00000000E+00
  -0.75000000E+00           0.00000000E+00
  -0.74000000E+00           0.00000000E+00
  -0.73000000E+00           0.00000000E+00
  -0.72000000E+00           0.00000000E+00
  -0.71000000E+00           0.00000000E+00
  -0.70000000E+00           0.00000000E+00
  -0.69000000E+00           0.00000000E+00
  -0.68000000E+00           0.00000000E+00
  -0.67000000E+00           0.00000000E+00
  -0.66000000E+00           0.00000000E+00
  -0.65000000E+00           0.00000000E+00
  -0.64000000E+00           0.00000000E+00
  -0.63000000E+00           0.00000000E+00
  -0.62000000E+00           0.00000000E+00
  -0.61000000E+00           0.00000000E+00
  -0.60000000E+00           0.00000000E+00
  -0.59000000E+00           0.00000000E+00
  -0.58000000E+00           0.00000000E+00
  -0.57000000E+00           0.00000000E+00
  -0.56000000E+00           0.00000000E+00
  -0.55000000E+00           0.00000000E+00
  -0.54000000E+00           0.00000000E+00
  -0.53000000E+00           0.00000000E+00
  -0.52000000E+00           0.00000000E+00
  -0.51000000E+00           0.00000000E+00
  -0.50000000E+00           0.00000000E+00
  -0.49000000E+00           0.00000000E+00
  -0.48000000E+00           0.00000000E+00
  -0.47000000E+00           0.00000000E+00
  -0.46000000E+00           0.00000000E+00
  -0.45000000E+00           0.00000000E+00
  -0.44000000E+00           0.00000000E+00
  -0.43000000E+00           0.00000000E+00
  -0.42000000E+00           0.00000000E+00
  -0.41000000E+00           0.00000000E+00
  -0.40000000E+00           0.00000000E+00
  -0.39000000E+00           0.00000000E+00
  -0.38000000E+00           0.00000000E+00
  -0.37000000E+00           0.00000000E+00
  -0.36000000E+00           0.00000000E+00
  -0.35000000E+00           0.00000000E+00
  -0.34000000E+00           0.00000000E+00
  -0.33000000E+00           0.00000000E+00
  -0.32000000E+00           0.00000000E+00
  -0.31000000E+00           0.00000000E+00
  -0.30000000E+00           0.00000000E+00
  -0.29000000E+00           0.00000000E+00
  -0.28000000E+00           0.00000000E+00
  -0.27000000E+00           0.00000000E+00
  -0.26000000E+00           0.00000000E+00
  -0.25000000E+00           0.00000000E+00
  -0.24000000E+00           0.00000000E+00
  -0.23000000E+00           0.00000000E+00
  -0.22000000E+00           0.00000000E+00
  -0.21000000E+00           0.00000000E+00
  -0.20000000E+00           0.00000000E+00
  -0.19000000E+00           0.00000000E+00
  -0.18000000E+00           0.00000000E+00
  -0.17000000E+00           0.00000000E+00
  -0.16000000E+00           0.00000000E+00
  -0.15000000E+00           0.00000000E+00
  -0.14000000E+00           0.00000000E+00
  -0.13000000E+00           0.00000000E+00
  -0.12000000E+00           0.00000000E+00
  -0.11000000E+00           0.00000000E+00
  -0.10000000E+00           0.00000000E+00
  -0.90000000E-01           0.00000000E+00
  -0.80000000E-01           0.00000000E+00
  -0.70000000E-01           0.00000000E+00
  -0.60000000E-01           0.00000000E+00
  -0.50000000E-01           0.00000000E+00
  -0.40000000E-01           0.00000000E+00
  -0.30000000E-01           0.00000000E+00
  -0.20000000E-01           0.00000000E+00
  -0.10000000E-01           0.00000000E+00
   0.00000000E+00           0.00000000E+00
   0.10000000E-01           0.00000000E+00
   0.20000000E-01           0.00000000E+00
   0.30000000E-01           0.00000000E+00
   0.40000000E-01           0.00000000E+00
   0.50000000E-01           0.00000000E+00
   0.60000000E-01           0.00000000E+00
   0.70000000E-01           0.00000000E+00
   0.80000000E-01           0.00000000E+00
   0.90000000E-01           0.00000000E+00
   0.10000000E+00           0.00000000E+00
   0.11000000E+00           0.00000000E+00
   0.12000000E+00           0.00000000E+00
   0.13000000E+00           0.00000000E+00
   0.14000000E+00           0.00000000E+00
   0.15000000E+00           0.00000000E+00
   0.16000000E+00           0.00000000E+00
   0.17000000E+00           0.00000000E+00
   0.18000000E+00           0.00000000E+00
   0.19000000E+00           0.00000000E+00
   0.20000000E+00           0.00000000E+00
   0.21000000E+00           0.00000000E+00
   0.22000000E+00           0.00000000E+00
   0.23000000E+00           0.00000000E+00
   0.24000000E+00           0.00000000E+00
   0.25000000E+00           0.00000000E+00
   0.26000000E+00           0.00000000E+00
   0.27000000E+00           0.00000000E+00
   0.28000000E+00           0.00000000E+00
   0.29000000E+00           0.00000000E+00
   0.30000000E+00           0.00000000E+00
   0.31000000E+00           0.00000000E+00
   0.32000000E+00           0.00000000E+00
   0.33000000E+00           0.00000000E+00
   0.34000000E+00           0.00000000E+00
   0.35000000E+00           0.00000000E+00
   0.36000000E+00           0.00000000E+00
   0.37000000E+00           0.00000000E+00
   0.38000000E+00           0.00000000E+00
   0.39000000E+00           0.00000000E+00
   0.40000000E+00           0.00000000E+00
   0.41000000E+00           0.00000000E+00
   0.42000000E+00           0.00000000E+00
   0.43000000E+00           0.00000000E+00
   0.44000000E+00           0.00000000E+00
   0.45000000E+00           0.00000000E+00
   0.46000000E+00           0.23437500E-04
   0.47000000E+00           0.00000000E+00
   0.48000000E+00           0.00000000E+00
   0.49000000E+00           0.00000000E+00
   0.50000000E+00           0.78125000E-05
   0.51000000E+00           0.00000000E+00
   0.52000000E+00           0.00000000E+00
   0.53000000E+00           0.00000000E+00
   0.54000000E+00           0.00000000E+00
   0.55000000E+00           0.00000000E+00
   0.56000000E+00           0.00000000E+00
   0.57000000E+00           0.46875000E-04
   0.58000000E+00           0.78125000E-05
   0.59000000E+00           0.00000000E+00
   0.60000000E+00           0.00000000E+00
   0.61000000E+00           0.00000000E+00
   0.62000000E+00           0.39062500E-04
   0.63000000E+00           0.00000000E+00
   0.64000000E+00           0.00000000E+00
   0.65000000E+00           0.00000000E+00
   0.66000000E+00           0.15625000E-04
   0.67000000E+00           0.00000000E+00
   0.68000000E+00           0.00000000E+00
   0.69000000E+00           0.78125000E-05
   0.70000000E+00           0.00000000E+00
   0.71000000E+00           0.62500000E-04
   0.72000000E+00           0.70312500E-04
   0.73000000E+00           0.23437500E-04
   0.74000000E+00           0.00000000E+00
   0.75000000E+00           0.54687500E-04
   0.76000000E+00           0.23437500E-04
   0.77000000E+00           0.10937500E-03
   0.78000000E+00           0.78125000E-05
   0.79000000E+00           0.46875000E-04
   0.80000000E+00           0.15625000E-03
   0.81000000E+00           0.31250000E-04
   0.82000000E+00           0.25781250E-03
   0.83000000E+00           0.23437500E-04
   0.84000000E+00           0.85937500E-04
   0.85000000E+00           0.25781250E-03
   0.86000000E+00           0.16406250E-03
   0.87000000E+00           0.78125000E-04
   0.88000000E+00           0.13281250E-03
   0.89000000E+00           0.54687500E-04
   0.90000000E+00           0.15625000E-03
   0.91000000E+00           0.31250000E-04
   0.92000000E+00           0.13281250E-03
   0.93000000E+00           0.20312500E-03
   0.94000000E+00           0.25781250E-03
   0.95000000E+00           0.26562500E-03
   0.96000000E+00           0.42187500E-03
   0.97000000E+00           0.77343750E-03
   0.98000000E+00           0.37500000E-03
   0.99000000E+00           0.27343750E-03
   0.10000000E+01           0.29687500E-03
   0.10100000E+01           0.70312500E-03
   0.10200000E+01           0.38281250E-03
   0.10300000E+01           0.38281250E-03
   0.10400000E+01           0.40625000E-03
   0.10500000E+01           0.14062500E-03
   0.10600000E+01           0.75000000E-03
   0.10700000E+01           0.42968750E-03
   0.10800000E+01           0.11796875E-02
   0.10900000E+01           0.96875000E-03
   0.11000000E+01           0.87500000E-03
   0.11100000E+01           0.10390625E-02
   0.11200000E+01           0.16093750E-02
   0.11300000E+01           0.15390625E-02
   0.11400000E+01           0.20234375E-02
   0.11500000E+01           0.14531250E-02
   0.11600000E+01           0.19921875E-02
   0.11700000E+01           0.20078125E-02
   0.11800000E+01           0.14843750E-02
   0.11900000E+01           0.13281250E-02
   0.12000000E+01           0.21953125E-02
   0.12100000E+01           0.20625000E-02
   0.12200000E+01           0.20078125E-02
   0.12300000E+01           0.29765625E-02
   0.12400000E+01           0.36250000E-02
   0.12500000E+01           0.29531250E-02
   0.12600000E+01           0.24375000E-02
   0.12700000E+01           0.35546875E-02
   0.12800000E+01           0.39921875E-02
   0.12900000E+01           0.35937500E-02
   0.13000000E+01           0.42578125E-02
   0.13100000E+01           0.47500000E-02
   0.13200000E+01           0.58671875E-02
   0.13300000E+01           0.60546875E-02
   0.13400000E+01           0.66250000E-02
   0.13500000E+01           0.81718750E-02
   0.13600000E+01           0.74687500E-02
   0.13700000E+01           0.80468750E-02
   0.13800000E+01           0.79687500E-02
   0.13900000E+01           0.88359375E-02
   0.14000000E+01           0.10609375E-01
   0.14100000E+01           0.12367188E-01
   0.14200000E+01           0.13093750E-01
   0.14300000E+01           0.14851563E-01
   0.14400000E+01           0.15062500E-01
   0.14500000E+01           0.17265625E-01
   0.14600000E+01           0.20171875E-01
   0.14700000E+01           0.22585938E-01
   0.14800000E+01           0.24195313E-01
   0.14900000E+01           0.26539063E-01
   0.15000000E+01           0.29617188E-01
   0.15100000E+01           0.34601563E-01
   0.15200000E+01           0.38882813E-01
   0.15300000E+01           0.43914063E-01
   0.15400000E+01           0.48031250E-01
   0.15500000E+01           0.51750000E-01
   0.15600000E+01           0.58867188E-01
   0.15700000E+01           0.68976563E-01
   0.15800000E+01           0.80453125E-01
   0.15900000E+01           0.80695313E-01
   0.16000000E+01           0.94468750E-01
   0.16100000E+01           0.10392188E+00
   0.16200000E+01           0.12207031E+00
   0.16300000E+01           0.13464063E+00
   0.16400000E+01           0.14609375E+00
   0.16500000E+01           0.16615625E+00
   0.16600000E+01           0.18867188E+00
   0.16700000E+01           0.21593750E+00
   0.16800000E+01           0.25142188E+00
   0.16900000E+01           0.27483594E+00
   0.17000000E+01           0.31119531E+00
   0.17100000E+01           0.36139844E+00
   0.17200000E+01           0.39811719E+00
   0.17300000E+01           0.43971094E+00
   0.17400000E+01           0.51017188E+00
   0.17500000E+01           0.56606250E+00
   0.17600000E+01           0.64778906E+00
   0.17700000E+01           0.72860938E+00
   0.17800000E+01           0.82500000E+00
   0.17900000E+01           0.93714844E+00
   0.18000000E+01           0.10572031E+01
   0.18100000E+01           0.11829531E+01
   0.18200000E+01           0.13207031E+01
   0.18300000E+01           0.15174219E+01
   0.18400000E+01           0.17184219E+01
   0.18500000E+01           0.19470469E+01
   0.18600000E+01           0.21868359E+01
   0.18700000E+01           0.24496094E+01
   0.18800000E+01           0.27883672E+01
   0.18900000E+01           0.31525156E+01
   0.19000000E+01           0.35884063E+01
   0.19100000E+01           0.40608047E+01
   0.19200000E+01           0.45697031E+01
   0.19300000E+01           0.51904688E+01
   0.19400000E+01           0.58668203E+01
   0.19500000E+01           0.66826406E+01
   0.19600000E+01           0.75207656E+01
   0.19700000E+01           0.84339297E+01
   0.19800000E+01           0.96497188E+01
   0.19900000E+01           0.10889750E+02
   0.20000000E+01           0.59668438E+01
 #T=    10.4681
  -0.20000000E+01           0.00000000E+00
  -0.19900000E+01           0.00000000E+00
  -0.19800000E+01           0.00000000E+00
  -0.19700000E+01           0.00000000E+00
  -0.19600000E+01           0.00000000E+00
  -0.19500000E+01           0.00000000E+00
  -0.19400000E+01           0.00000000E+00
  -0.19300000E+01           0.00000000E+00
  -0.19200000E+01           0.00000000E+00
  -0.19100000E+01           0.00000000E+00
  -0.19000000E+01           0.00000000E+00
  -0.18900000E+01           0.00000000E+00
  -0.18800000E+01           0.00000000E+00
  -0.18700000E+01           0.00000000E+00
  -0.18600000E+01           0.00000000E+00
  -0.18500000E+01           0.00000000E+00
  -0.18400000E+01           0.00000000E+00
  -0.18300000E+01           0.00000000E+00
  -0.18200000E+01           0.00000000E+00
  -0.18100000E+01           0.00000000E+00
  -0.18000000E+01           0.00000000E+00
  -0.17900000E+01           0.00000000E+00
  -0.17800000E+01           0.00000000E+00
  -0.17700000E+01           0.00000000E+00
  -0.17600000E+01           0.00000000E+00
  -0.17500000E+01           0.00000000E+00
  -0.17400000E+01           0.00000000E+00
  -0.17300000E+01           0.00000000E+00
  -0.17200000E+01           0.00000000E+00
  -0.17100000E+01           0.00000000E+00
  -0.17000000E+01           0.00000000E+00
  -0.16900000E+01           0.00000000E+00
  -0.16800000E+01           0.00000000E+00
  -0.16700000E+01           0.00000000E+00
  -0.16600000E+01           0.00000000E+00
  -0.16500000E+01           0.00000000E+00
  -0.16400000E+01           0.00000000E+00
  -0.16300000E+01           0.00000000E+00
  -0.16200000E+01           0.00000000E+00
  -0.16100000E+01           0.00000000E+00
  -0.16000000E+01           0.00000000E+00
  -0.15900000E+01           0.00000000E+00
  -0.15800000E+01           0.00000000E+00
  -0.15700000E+01           0.00000000E+00
  -0.15600000E+01           0.00000000E+00
  -0.15500000E+01           0.00000000E+00
  -0.15400000E+01           0.00000000E+00
  -0.15300000E+01           0.00000000E+00
  -0.15200000E+01           0.00000000E+00
  -0.15100000E+01           0.00000000E+00
  -0.15000000E+01           0.00000000E+00
  -0.14900000E+01           0.00000000E+00
  -0.14800000E+01           0.00000000E+00
  -0.14700000E+01           0.00000000E+00
  -0.14600000E+01           0.00000000E+00
  -0.14500000E+01           0.00000000E+00
  -0.14400000E+01           0.00000000E+00
  -0.14300000E+01           0.00000000E+00
  -0.14200000E+01           0.00000000E+00
  -0.14100000E+01           0.00000000E+00
  -0.14000000E+01           0.00000000E+00
  -0.13900000E+01           0.00000000E+00
  -0.13800000E+01           0.00000000E+00
  -0.13700000E+01           0.00000000E+00
  -0.13600000E+01           0.00000000E+00
  -0.13500000E+01           0.00000000E+00
  -0.13400000E+01           0.00000000E+00
  -0.13300000E+01           0.00000000E+00
  -0.13200000E+01           0.00000000E+00
  -0.13100000E+01           0.00000000E+00
  -0.13000000E+01           0.00000000E+00
  -0.12900000E+01           0.00000000E+00
  -0.12800000E+01           0.00000000E+00
  -0.12700000E+01           0.00000000E+00
  -0.12600000E+01           0.00000000E+00
  -0.12500000E+01           0.00000000E+00
  -0.12400000E+01           0.00000000E+00
  -0.12300000E+01           0.00000000E+00
  -0.12200000E+01           0.00000000E+00
  -0.12100000E+01           0.00000000E+00
  -0.12000000E+01           0.00000000E+00
  -0.11900000E+01           0.00000000E+00
  -0.11800000E+01           0.00000000E+00
  -0.11700000E+01           0.00000000E+00
  -0.11600000E+01           0.00000000E+00
  -0.11500000E+01           0.00000000E+00
  -0.11400000E+01           0.00000000E+00
  -0.11300000E+01           0.00000000E+00
  -0.11200000E+01           0.00000000E+00
  -0.11100000E+01           0.00000000E+00
  -0.11000000E+01           0.00000000E+00
  -0.10900000E+01           0.00000000E+00
  -0.10800000E+01           0.00000000E+00
  -0.10700000E+01           0.00000000E+00
  -0.10600000E+01           0.00000000E+00
  -0.10500000E+01           0.00000000E+00
  -0.10400000E+01           0.00000000E+00
  -0.10300000E+01           0.00000000E+00
  -0.10200000E+01           0.00000000E+00
  -0.10100000E+01           0.00000000E+00
  -0.10000000E+01           0.00000000E+00
  -0.99000000E+00           0.00000000E+00
  -0.98000000E+00           0.00000000E+00
  -0.97000000E+00           0.00000000E+00
  -0.96000000E+00           0.00000000E+00
  -0.95000000E+00           0.00000000E+00
  -0.94000000E+00           0.00000000E+00
  -0.93000000E+00           0.00000000E+00
  -0.92000000E+00           0.00000000E+00
  -0.91000000E+00           0.00000000E+00
  -0.90000000E+00           0.00000000E+00
  -0.89000000E+00           0.00000000E+00
  -0.88000000E+00           0.00000000E+00
  -0.87000000E+00           0.00000000E+00
  -0.86000000E+00           0.00000000E+00
  -0.85000000E+00           0.00000000E+00
  -0.84000000E+00           0.00000000E+00
  -0.83000000E+00           0.00000000E+00
  -0.82000000E+00           0.00000000E+00
  -0.81000000E+00           0.00000000E+00
  -0.80000000E+00           0.00000000E+00
  -0.79000000E+00           0.00000000E+00
  -0.78000000E+00           0.00000000E+00
  -0.77000000E+00           0.00000000E+00
  -0.76000000E+00           0.00000000E+00
  -0.75000000E+00           0.00000000E+00
  -0.74000000E+00           0.00000000E+00
  -0.73000000E+00           0.00000000E+00
  -0.72000000E+00           0.00000000E+00
  -0.71000000E+00           0.00000000E+00
  -0.70000000E+00           0.00000000E+00
  -0.69000000E+00           0.00000000E+00
  -0.68000000E+00           0.00000000E+00
  -0.67000000E+00           0.00000000E+00
  -0.66000000E+00           0.00000000E+00
  -0.65000000E+00           0.00000000E+00
  -0.64000000E+00           0.00000000E+00
  -0.63000000E+00           0.00000000E+00
  -0.62000000E+00           0.00000000E+00
  -0.61000000E+00           0.00000000E+00
  -0.60000000E+00           0.00000000E+00
  -0.59000000E+00           0.00000000E+00
  -0.58000000E+00           0.00000000E+00
  -0.57000000E+00           0.00000000E+00
  -0.56000000E+00           0.00000000E+00
  -0.55000000E+00           0.00000000E+00
  -0.54000000E+00           0.00000000E+00
  -0.53000000E+00           0.00000000E+00
  -0.52000000E+00           0.00000000E+00
  -0.51000000E+00           0.00000000E+00
  -0.50000000E+00           0.00000000E+00
  -0.49000000E+00           0.00000000E+00
  -0.48000000E+00           0.00000000E+00
  -0.47000000E+00           0.00000000E+00
  -0.46000000E+00           0.00000000E+00
  -0.45000000E+00           0.00000000E+00
  -0.44000000E+00           0.00000000E+00
  -0.43000000E+00           0.00000000E+00
  -0.42000000E+00           0.00000000E+00
  -0.41000000E+00           0.00000000E+00
  -0.40000000E+00           0.00000000E+00
  -0.39000000E+00           0.00000000E+00
  -0.38000000E+00           0.00000000E+00
  -0.37000000E+00           0.00000000E+00
  -0.36000000E+00           0.00000000E+00
  -0.35000000E+00           0.00000000E+00
  -0.34000000E+00           0.00000000E+00
  -0.33000000E+00           0.00000000E+00
  -0.32000000E+00           0.00000000E+00
  -0.31000000E+00           0.00000000E+00
  -0.30000000E+00           0.00000000E+00
  -0.29000000E+00           0.00000000E+00
  -0.28000000E+00           0.00000000E+00
  -0.27000000E+00           0.00000000E+00
  -0.26000000E+00           0.00000000E+00
  -0.25000000E+00           0.00000000E+00
  -0.24000000E+00           0.00000000E+00
  -0.23000000E+00           0.00000000E+00
  -0.22000000E+00           0.00000000E+00
  -0.21000000E+00           0.00000000E+00
  -0.20000000E+00           0.00000000E+00
  -0.19000000E+00           0.00000000E+00
  -0.18000000E+00           0.00000000E+00
  -0.17000000E+00           0.00000000E+00
  -0.16000000E+00           0.00000000E+00
  -0.15000000E+00           0.00000000E+00
  -0.14000000E+00           0.00000000E+00
  -0.13000000E+00           0.00000000E+00
  -0.12000000E+00           0.00000000E+00
  -0.11000000E+00           0.00000000E+00
  -0.10000000E+00           0.00000000E+00
  -0.90000000E-01           0.00000000E+00
  -0.80000000E-01           0.00000000E+00
  -0.70000000E-01           0.00000000E+00
  -0.60000000E-01           0.00000000E+00
  -0.50000000E-01           0.00000000E+00
  -0.40000000E-01           0.00000000E+00
  -0.30000000E-01           0.00000000E+00
  -0.20000000E-01           0.00000000E+00
  -0.10000000E-01           0.00000000E+00
   0.00000000E+00           0.52812500E-02
   0.10000000E-01           0.38453125E-01
   0.20000000E-01           0.76093750E-01
   0.30000000E-01           0.11451563E+00
   0.40000000E-01           0.15710938E+00
   0.50000000E-01           0.19352344E+00
   0.60000000E-01           0.24435156E+00
   0.70000000E-01           0.27523438E+00
   0.80000000E-01           0.31206250E+00
   0.90000000E-01           0.35714844E+00
   0.10000000E+00           0.39783594E+00
   0.11000000E+00           0.42158594E+00
   0.12000000E+00           0.47207031E+00
   0.13000000E+00           0.49244531E+00
   0.14000000E+00           0.54016406E+00
   0.15000000E+00           0.57540625E+00
   0.16000000E+00           0.61042188E+00
   0.17000000E+00           0.64761719E+00
   0.18000000E+00           0.67380469E+00
   0.19000000E+00           0.70464844E+00
   0.20000000E+00           0.73821875E+00
   0.21000000E+00           0.76989844E+00
   0.22000000E+00           0.79121875E+00
   0.23000000E+00           0.80050000E+00
   0.24000000E+00           0.85444531E+00
   0.25000000E+00           0.83017969E+00
   0.26000000E+00           0.90655469E+00
   0.27000000E+00           0.89715625E+00
   0.28000000E+00           0.93180469E+00
   0.29000000E+00           0.95363281E+00
   0.30000000E+00           0.96653906E+00
   0.31000000E+00           0.97248438E+00
   0.32000000E+00           0.99189063E+00
   0.33000000E+00           0.10016563E+01
   0.34000000E+00           0.10224453E+01
   0.35000000E+00           0.10458125E+01
   0.36000000E+00           0.10373906E+01
   0.37000000E+00           0.10512813E+01
   0.38000000E+00           0.10695625E+01
   0.39000000E+00           0.10634609E+01
   0.40000000E+00           0.10510469E+01
   0.41000000E+00           0.10825391E+01
   0.42000000E+00           0.10756250E+01
   0.43000000E+00           0.10936562E+01
   0.44000000E+00           0.10885625E+01
   0.45000000E+00           0.10812578E+01
   0.46000000E+00           0.10916484E+01
   0.47000000E+00           0.10809063E+01
   0.48000000E+00           0.10928359E+01
   0.49000000E+00           0.10800781E+01
[...]
   0.13800000E+01           0.68650781E+00
   0.13900000E+01           0.69304688E+00
   0.14000000E+01           0.69897656E+00
   0.14100000E+01           0.70445313E+00
   0.14200000E+01           0.70764063E+00
   0.14300000E+01           0.71119531E+00
   0.14400000E+01           0.71681250E+00
   0.14500000E+01           0.72571875E+00
   0.14600000E+01           0.72893750E+00
   0.14700000E+01           0.73313281E+00
   0.14800000E+01           0.73771875E+00
   0.14900000E+01           0.74067188E+00
   0.15000000E+01           0.75020313E+00
   0.15100000E+01           0.75527344E+00
   0.15200000E+01           0.75870313E+00
   0.15300000E+01           0.76171875E+00
   0.15400000E+01           0.76885938E+00
   0.15500000E+01           0.77384375E+00
   0.15600000E+01           0.77639063E+00
   0.15700000E+01           0.78030469E+00
   0.15800000E+01           0.78318750E+00
   0.15900000E+01           0.79192188E+00
   0.16000000E+01           0.80003125E+00
   0.16100000E+01           0.80407813E+00
   0.16200000E+01           0.80352344E+00
   0.16300000E+01           0.80509375E+00
   0.16400000E+01           0.81705469E+00
   0.16500000E+01           0.82101563E+00
   0.16600000E+01           0.82488281E+00
   0.16700000E+01           0.83080469E+00
   0.16800000E+01           0.84067969E+00
   0.16900000E+01           0.84148438E+00
   0.17000000E+01           0.84487500E+00
   0.17100000E+01           0.84797656E+00
   0.17200000E+01           0.85614844E+00
   0.17300000E+01           0.86374219E+00
   0.17400000E+01           0.86695313E+00
   0.17500000E+01           0.86593750E+00
   0.17600000E+01           0.87649219E+00
   0.17700000E+01           0.88045313E+00
   0.17800000E+01           0.88631250E+00
   0.17900000E+01           0.89487500E+00
   0.18000000E+01           0.89719531E+00
   0.18100000E+01           0.90255469E+00
   0.18200000E+01           0.90875781E+00
   0.18300000E+01           0.91389844E+00
   0.18400000E+01           0.91617188E+00
   0.18500000E+01           0.92020313E+00
   0.18600000E+01           0.92416406E+00
   0.18700000E+01           0.92948438E+00
   0.18800000E+01           0.93528906E+00
   0.18900000E+01           0.94015625E+00
   0.19000000E+01           0.94482031E+00
   0.19100000E+01           0.95700781E+00
   0.19200000E+01           0.95350781E+00
   0.19300000E+01           0.96345313E+00
   0.19400000E+01           0.96576563E+00
   0.19500000E+01           0.96959375E+00
   0.19600000E+01           0.97566406E+00
   0.19700000E+01           0.97985156E+00
   0.19800000E+01           0.98369531E+00
   0.19900000E+01           0.99335156E+00
   0.20000000E+01           0.49940625E+00
 #T=    80.0000
  -0.20000000E+01           0.00000000E+00
  -0.19900000E+01           0.00000000E+00
  -0.19800000E+01           0.00000000E+00
  -0.19700000E+01           0.00000000E+00
  -0.19600000E+01           0.00000000E+00
  -0.19500000E+01           0.00000000E+00
  -0.19400000E+01           0.00000000E+00
  -0.19300000E+01           0.00000000E+00
  -0.19200000E+01           0.00000000E+00
  -0.19100000E+01           0.00000000E+00
  -0.19000000E+01           0.00000000E+00
  -0.18900000E+01           0.00000000E+00
  -0.18800000E+01           0.00000000E+00
  -0.18700000E+01           0.00000000E+00
  -0.18600000E+01           0.00000000E+00
  -0.18500000E+01           0.00000000E+00
  -0.18400000E+01           0.00000000E+00
  -0.18300000E+01           0.00000000E+00
  -0.18200000E+01           0.00000000E+00
  -0.18100000E+01           0.00000000E+00
  -0.18000000E+01           0.00000000E+00
  -0.17900000E+01           0.00000000E+00
  -0.17800000E+01           0.00000000E+00
  -0.17700000E+01           0.00000000E+00
  -0.17600000E+01           0.00000000E+00
  -0.17500000E+01           0.00000000E+00
  -0.17400000E+01           0.00000000E+00
  -0.17300000E+01           0.00000000E+00
  -0.17200000E+01           0.00000000E+00
  -0.17100000E+01           0.00000000E+00
  -0.17000000E+01           0.00000000E+00
  -0.16900000E+01           0.00000000E+00
  -0.16800000E+01           0.00000000E+00
  -0.16700000E+01           0.00000000E+00
  -0.16600000E+01           0.00000000E+00
  -0.16500000E+01           0.00000000E+00
  -0.16400000E+01           0.00000000E+00
  -0.16300000E+01           0.00000000E+00
  -0.16200000E+01           0.00000000E+00
  -0.16100000E+01           0.00000000E+00
  -0.16000000E+01           0.00000000E+00
  -0.15900000E+01           0.00000000E+00
  -0.15800000E+01           0.00000000E+00
  -0.15700000E+01           0.00000000E+00
  -0.15600000E+01           0.00000000E+00
  -0.15500000E+01           0.00000000E+00
  -0.15400000E+01           0.00000000E+00
  -0.15300000E+01           0.00000000E+00
  -0.15200000E+01           0.00000000E+00
  -0.15100000E+01           0.00000000E+00
  -0.15000000E+01           0.00000000E+00
  -0.14900000E+01           0.00000000E+00
  -0.14800000E+01           0.00000000E+00
  -0.14700000E+01           0.00000000E+00
  -0.14600000E+01           0.00000000E+00
  -0.14500000E+01           0.00000000E+00
  -0.14400000E+01           0.00000000E+00
  -0.14300000E+01           0.00000000E+00
  -0.14200000E+01           0.00000000E+00
  -0.14100000E+01           0.00000000E+00
  -0.14000000E+01           0.00000000E+00
  -0.13900000E+01           0.00000000E+00
  -0.13800000E+01           0.00000000E+00
  -0.13700000E+01           0.00000000E+00
  -0.13600000E+01           0.00000000E+00
  -0.13500000E+01           0.00000000E+00
  -0.13400000E+01           0.00000000E+00
  -0.13300000E+01           0.00000000E+00
  -0.13200000E+01           0.00000000E+00
  -0.13100000E+01           0.00000000E+00
  -0.13000000E+01           0.00000000E+00
  -0.12900000E+01           0.00000000E+00
  -0.12800000E+01           0.00000000E+00
  -0.12700000E+01           0.00000000E+00
  -0.12600000E+01           0.00000000E+00
  -0.12500000E+01           0.00000000E+00
  -0.12400000E+01           0.00000000E+00
  -0.12300000E+01           0.00000000E+00
  -0.12200000E+01           0.00000000E+00
  -0.12100000E+01           0.00000000E+00
  -0.12000000E+01           0.00000000E+00
  -0.11900000E+01           0.00000000E+00
  -0.11800000E+01           0.00000000E+00
  -0.11700000E+01           0.00000000E+00
  -0.11600000E+01           0.00000000E+00
  -0.11500000E+01           0.00000000E+00
  -0.11400000E+01           0.00000000E+00
  -0.11300000E+01           0.00000000E+00
  -0.11200000E+01           0.00000000E+00
  -0.11100000E+01           0.00000000E+00
  -0.11000000E+01           0.00000000E+00
  -0.10900000E+01           0.00000000E+00
  -0.10800000E+01           0.00000000E+00
  -0.10700000E+01           0.00000000E+00
  -0.10600000E+01           0.00000000E+00
  -0.10500000E+01           0.00000000E+00
  -0.10400000E+01           0.00000000E+00
  -0.10300000E+01           0.00000000E+00
  -0.10200000E+01           0.00000000E+00
  -0.10100000E+01           0.00000000E+00
  -0.10000000E+01           0.00000000E+00
  -0.99000000E+00           0.00000000E+00
  -0.98000000E+00           0.00000000E+00
  -0.97000000E+00           0.00000000E+00
  -0.96000000E+00           0.00000000E+00
  -0.95000000E+00           0.00000000E+00
  -0.94000000E+00           0.00000000E+00
  -0.93000000E+00           0.00000000E+00
  -0.92000000E+00           0.00000000E+00
  -0.91000000E+00           0.00000000E+00
  -0.90000000E+00           0.00000000E+00
  -0.89000000E+00           0.00000000E+00
  -0.88000000E+00           0.00000000E+00
  -0.87000000E+00           0.00000000E+00
  -0.86000000E+00           0.00000000E+00
  -0.85000000E+00           0.00000000E+00
  -0.84000000E+00           0.00000000E+00
  -0.83000000E+00           0.00000000E+00
  -0.82000000E+00           0.00000000E+00
  -0.81000000E+00           0.00000000E+00
  -0.80000000E+00           0.00000000E+00
  -0.79000000E+00           0.00000000E+00
  -0.78000000E+00           0.00000000E+00
  -0.77000000E+00           0.00000000E+00
  -0.76000000E+00           0.00000000E+00
  -0.75000000E+00           0.00000000E+00
  -0.74000000E+00           0.00000000E+00
  -0.73000000E+00           0.00000000E+00
  -0.72000000E+00           0.00000000E+00
  -0.71000000E+00           0.00000000E+00
  -0.70000000E+00           0.00000000E+00
  -0.69000000E+00           0.00000000E+00
  -0.68000000E+00           0.00000000E+00
  -0.67000000E+00           0.00000000E+00
  -0.66000000E+00           0.00000000E+00
  -0.65000000E+00           0.00000000E+00
  -0.64000000E+00           0.00000000E+00
  -0.63000000E+00           0.00000000E+00
  -0.62000000E+00           0.00000000E+00
  -0.61000000E+00           0.00000000E+00
  -0.60000000E+00           0.00000000E+00
  -0.59000000E+00           0.00000000E+00
  -0.58000000E+00           0.00000000E+00
  -0.57000000E+00           0.00000000E+00
  -0.56000000E+00           0.00000000E+00
  -0.55000000E+00           0.00000000E+00
  -0.54000000E+00           0.00000000E+00
  -0.53000000E+00           0.00000000E+00
  -0.52000000E+00           0.00000000E+00
  -0.51000000E+00           0.00000000E+00
  -0.50000000E+00           0.00000000E+00
  -0.49000000E+00           0.00000000E+00
  -0.48000000E+00           0.00000000E+00
  -0.47000000E+00           0.00000000E+00
  -0.46000000E+00           0.00000000E+00
  -0.45000000E+00           0.00000000E+00
  -0.44000000E+00           0.00000000E+00
  -0.43000000E+00           0.00000000E+00
  -0.42000000E+00           0.00000000E+00
  -0.41000000E+00           0.00000000E+00
  -0.40000000E+00           0.00000000E+00
  -0.39000000E+00           0.00000000E+00
  -0.38000000E+00           0.00000000E+00
  -0.37000000E+00           0.00000000E+00
  -0.36000000E+00           0.00000000E+00
  -0.35000000E+00           0.00000000E+00
  -0.34000000E+00           0.00000000E+00
  -0.33000000E+00           0.00000000E+00
  -0.32000000E+00           0.00000000E+00
  -0.31000000E+00           0.00000000E+00
  -0.30000000E+00           0.00000000E+00
  -0.29000000E+00           0.00000000E+00
  -0.28000000E+00           0.00000000E+00
  -0.27000000E+00           0.00000000E+00
  -0.26000000E+00           0.00000000E+00
  -0.25000000E+00           0.00000000E+00
  -0.24000000E+00           0.00000000E+00
  -0.23000000E+00           0.00000000E+00
  -0.22000000E+00           0.00000000E+00
  -0.21000000E+00           0.00000000E+00
  -0.20000000E+00           0.00000000E+00
  -0.19000000E+00           0.00000000E+00
  -0.18000000E+00           0.00000000E+00
  -0.17000000E+00           0.00000000E+00
  -0.16000000E+00           0.00000000E+00
  -0.15000000E+00           0.00000000E+00
  -0.14000000E+00           0.00000000E+00
  -0.13000000E+00           0.00000000E+00
  -0.12000000E+00           0.00000000E+00
  -0.11000000E+00           0.00000000E+00
  -0.10000000E+00           0.00000000E+00
  -0.90000000E-01           0.00000000E+00
  -0.80000000E-01           0.00000000E+00
  -0.70000000E-01           0.00000000E+00
  -0.60000000E-01           0.00000000E+00
  -0.50000000E-01           0.00000000E+00
  -0.40000000E-01           0.00000000E+00
  -0.30000000E-01           0.00000000E+00
  -0.20000000E-01           0.00000000E+00
  -0.10000000E-01           0.00000000E+00
   0.00000000E+00           0.61718750E-03
   0.10000000E-01           0.51953125E-02
   0.20000000E-01           0.97343750E-02
   0.30000000E-01           0.15132813E-01
   0.40000000E-01           0.20359375E-01
   0.50000000E-01           0.25718750E-01
   0.60000000E-01           0.30328125E-01
   0.70000000E-01           0.35914063E-01
   0.80000000E-01           0.41109375E-01
   0.90000000E-01           0.44882813E-01
   0.10000000E+00           0.50046875E-01
   0.11000000E+00           0.55992188E-01
   0.12000000E+00           0.61343750E-01
   0.13000000E+00           0.67406250E-01
   0.14000000E+00           0.70968750E-01
   0.15000000E+00           0.77679688E-01
   0.16000000E+00           0.81171875E-01
   0.17000000E+00           0.86195313E-01
   0.18000000E+00           0.91523438E-01
   0.19000000E+00           0.95976563E-01
   0.20000000E+00           0.10091406E+00
   0.21000000E+00           0.10464063E+00
   0.22000000E+00           0.11158594E+00
   0.23000000E+00           0.11739063E+00
   0.24000000E+00           0.12218750E+00
   0.25000000E+00           0.12618750E+00
   0.26000000E+00           0.13249219E+00
   0.27000000E+00           0.13696875E+00
   0.28000000E+00           0.14194531E+00
   0.29000000E+00           0.14678125E+00
   0.30000000E+00           0.15233594E+00
   0.31000000E+00           0.15616406E+00
   0.32000000E+00           0.16078906E+00
   0.33000000E+00           0.16622656E+00
   0.34000000E+00           0.17214844E+00
   0.35000000E+00           0.18043750E+00
   0.36000000E+00           0.18260156E+00
   0.37000000E+00           0.18732813E+00
   0.38000000E+00           0.19019531E+00
   0.39000000E+00           0.19692969E+00
   0.40000000E+00           0.19879688E+00
   0.41000000E+00           0.21036719E+00
   0.42000000E+00           0.21192188E+00
   0.43000000E+00           0.21567969E+00
   0.44000000E+00           0.22110156E+00
   0.45000000E+00           0.22727344E+00
   0.46000000E+00           0.23439063E+00
   0.47000000E+00           0.23687500E+00
   0.48000000E+00           0.24396875E+00
   0.49000000E+00           0.24435938E+00
   0.50000000E+00           0.25332813E+00
   0.51000000E+00           0.25856250E+00
   0.52000000E+00           0.26432813E+00
   0.53000000E+00           0.27164063E+00
   0.54000000E+00           0.27556250E+00
   0.55000000E+00           0.27751563E+00
   0.56000000E+00           0.28163281E+00
   0.57000000E+00           0.28810938E+00
   0.58000000E+00           0.29240625E+00
   0.59000000E+00           0.29894531E+00
   0.60000000E+00           0.30333594E+00
   0.61000000E+00           0.30832031E+00
   0.62000000E+00           0.31325000E+00
   0.63000000E+00           0.31630469E+00
   0.64000000E+00           0.32225781E+00
   0.65000000E+00           0.32413281E+00
   0.66000000E+00           0.33242188E+00
   0.67000000E+00           0.33723438E+00
   0.68000000E+00           0.34018750E+00
   0.69000000E+00           0.34587500E+00
   0.70000000E+00           0.35053125E+00
   0.71000000E+00           0.35596875E+00
   0.72000000E+00           0.36657813E+00
   0.73000000E+00           0.36928906E+00
   0.74000000E+00           0.37140625E+00
   0.75000000E+00           0.37786719E+00
   0.76000000E+00           0.38392969E+00
   0.77000000E+00           0.38664063E+00
   0.78000000E+00           0.38946094E+00
   0.79000000E+00           0.39725000E+00
   0.80000000E+00           0.40336719E+00
   0.81000000E+00           0.40628906E+00
   0.82000000E+00           0.41178125E+00
   0.83000000E+00           0.41717969E+00
   0.84000000E+00           0.42228125E+00
   0.85000000E+00           0.42518750E+00
   0.86000000E+00           0.43372656E+00
   0.87000000E+00           0.44013281E+00
   0.88000000E+00           0.44130469E+00
   0.89000000E+00           0.44708594E+00
   0.90000000E+00           0.45138281E+00
   0.91000000E+00           0.45940625E+00
   0.92000000E+00           0.46415625E+00
   0.93000000E+00           0.47066406E+00
   0.94000000E+00           0.47650781E+00
   0.95000000E+00           0.47671875E+00
   0.96000000E+00           0.48133594E+00
   0.97000000E+00           0.48600000E+00
   0.98000000E+00           0.49241406E+00
   0.99000000E+00           0.49674219E+00
   0.10000000E+01           0.50367187E+00
   0.10100000E+01           0.50523438E+00
   0.10200000E+01           0.50939844E+00
   0.10300000E+01           0.52074219E+00
   0.10400000E+01           0.52264844E+00
   0.10500000E+01           0.52187500E+00
   0.10600000E+01           0.53109375E+00
   0.10700000E+01           0.53442969E+00
   0.10800000E+01           0.54289063E+00
   0.10900000E+01           0.54484375E+00
   0.11000000E+01           0.55139844E+00
   0.11100000E+01           0.55735156E+00
   0.11200000E+01           0.56017188E+00
   0.11300000E+01           0.56949219E+00
   0.11400000E+01           0.57110156E+00
   0.11500000E+01           0.57503906E+00
   0.11600000E+01           0.57451563E+00
   0.11700000E+01           0.58539844E+00
   0.11800000E+01           0.59277344E+00
   0.11900000E+01           0.59903125E+00
   0.12000000E+01           0.60135938E+00
   0.12100000E+01           0.60460156E+00
   0.12200000E+01           0.60992188E+00
   0.12300000E+01           0.61453906E+00
   0.12400000E+01           0.62278906E+00
   0.12500000E+01           0.62545313E+00
   0.12600000E+01           0.63317969E+00
   0.12700000E+01           0.63675781E+00
   0.12800000E+01           0.64189844E+00
   0.12900000E+01           0.64512500E+00
   0.13000000E+01           0.65117188E+00
   0.13100000E+01           0.65517969E+00
   0.13200000E+01           0.65986719E+00
   0.13300000E+01           0.66916406E+00
   0.13400000E+01           0.66648438E+00
   0.13500000E+01           0.67465625E+00
   0.13600000E+01           0.67874219E+00
   0.13700000E+01           0.68265625E+00
   0.13800000E+01           0.68814063E+00
   0.13900000E+01           0.69004688E+00
   0.14000000E+01           0.69617188E+00
   0.14100000E+01           0.70243750E+00
   0.14200000E+01           0.71097656E+00
   0.14300000E+01           0.70921094E+00
   0.14400000E+01           0.71601563E+00
   0.14500000E+01           0.71798438E+00
   0.14600000E+01           0.72721094E+00
   0.14700000E+01           0.73197656E+00
   0.14800000E+01           0.73526563E+00
   0.14900000E+01           0.73939844E+00
   0.15000000E+01           0.74931250E+00
   0.15100000E+01           0.75168750E+00
   0.15200000E+01           0.75930469E+00
   0.15300000E+01           0.76107031E+00
   0.15400000E+01           0.76990625E+00
   0.15500000E+01           0.77128906E+00
   0.15600000E+01           0.77560938E+00
   0.15700000E+01           0.78289844E+00
   0.15800000E+01           0.78360156E+00
   0.15900000E+01           0.79309375E+00
   0.16000000E+01           0.79214063E+00
   0.16100000E+01           0.79841406E+00
   0.16200000E+01           0.80464844E+00
   0.16300000E+01           0.81267188E+00
   0.16400000E+01           0.81491406E+00
   0.16500000E+01           0.81950000E+00
   0.16600000E+01           0.82322656E+00
   0.16700000E+01           0.83265625E+00
   0.16800000E+01           0.83505469E+00
   0.16900000E+01           0.83971094E+00
   0.17000000E+01           0.84896875E+00
   0.17100000E+01           0.85125000E+00
   0.17200000E+01           0.85457813E+00
   0.17300000E+01           0.86329688E+00
   0.17400000E+01           0.86896094E+00
   0.17500000E+01           0.87445313E+00
   0.17600000E+01           0.87207813E+00
   0.17700000E+01           0.88629688E+00
   0.17800000E+01           0.88639844E+00
   0.17900000E+01           0.88938281E+00
   0.18000000E+01           0.89835156E+00
   0.18100000E+01           0.90344531E+00
   0.18200000E+01           0.90657813E+00
   0.18300000E+01           0.90942188E+00
   0.18400000E+01           0.91161719E+00
   0.18500000E+01           0.92012500E+00
   0.18600000E+01           0.92126563E+00
   0.18700000E+01           0.93148438E+00
   0.18800000E+01           0.93688281E+00
   0.18900000E+01           0.94082031E+00
   0.19000000E+01           0.94639063E+00
   0.19100000E+01           0.94929688E+00
   0.19200000E+01           0.95750781E+00
   0.19300000E+01           0.96055469E+00
   0.19400000E+01           0.96021094E+00
   0.19500000E+01           0.96880469E+00
   0.19600000E+01           0.97877344E+00
   0.19700000E+01           0.98344531E+00
   0.19800000E+01           0.98960156E+00
   0.19900000E+01           0.99153125E+00
   0.20000000E+01           0.49981250E+00
